TITLE = "Solution on Domain BulkDomain1D_1"
VARIABLES = "x [m]"  
"Vel_axial(0)" 	"MF_sp(ECDMC)" 	"MF_sp(Li+)" 	"MF_sp(PF6-)" 	"Volt(Electroly)" 	"qHeat_accum [J/m3]" 	"qHeat_step [W/m3]" 	"Joule_Lyte [W/m3]" 	"Joule_Solid [W/m3]" 	
ZONE T = "t = 0 [s]" I = 10 SOLUTIONTIME = 0.0000000000000E+00
0.0001 	0 	0.843947 	0.0780266 	0.0780266 	-0.07 	
0 	0.0 	 0.0 	 0.0 	 
0.000102778 	0 	0.843947 	0.0780266 	0.0780266 	-0.07 	
0 	0.0 	 0.0 	 0.0 	 
0.000105556 	0 	0.843947 	0.0780266 	0.0780266 	-0.07 	
0 	0.0 	 0.0 	 0.0 	 
0.000108333 	0 	0.843947 	0.0780266 	0.0780266 	-0.07 	
0 	0.0 	 0.0 	 0.0 	 
0.000111111 	0 	0.843947 	0.0780266 	0.0780266 	-0.07 	
0 	0.0 	 0.0 	 0.0 	 
0.000113889 	0 	0.843947 	0.0780266 	0.0780266 	-0.07 	
0 	0.0 	 0.0 	 0.0 	 
0.000116667 	0 	0.843947 	0.0780266 	0.0780266 	-0.07 	
0 	0.0 	 0.0 	 0.0 	 
0.000119444 	0 	0.843947 	0.0780266 	0.0780266 	-0.07 	
0 	0.0 	 0.0 	 0.0 	 
0.000122222 	0 	0.843947 	0.0780266 	0.0780266 	-0.07 	
0 	0.0 	 0.0 	 0.0 	 
0.000125 	0 	0.843947 	0.0780266 	0.0780266 	-0.07 	
0 	0.0 	 0.0 	 0.0 	 
ZONE T = "t = 1e-08 [s]" I = 10 SOLUTIONTIME = 1.0000000000000E-08
0.0001 	6.12175e-09 	0.843947 	0.0780266 	0.0780266 	-0.148428 	
5.32572e-11 	0.00532572 	0.00532572 	0 	
0.000102778 	6.1154e-09 	0.843947 	0.0780266 	0.0780266 	-0.148428 	
5.32572e-11 	0.00532572 	0.00532572 	0 	
0.000105556 	6.1154e-09 	0.843947 	0.0780266 	0.0780266 	-0.148428 	
5.32572e-11 	0.00532572 	0.00532572 	0 	
0.000108333 	6.1154e-09 	0.843947 	0.0780266 	0.0780266 	-0.148428 	
5.32572e-11 	0.00532572 	0.00532572 	0 	
0.000111111 	6.1154e-09 	0.843947 	0.0780266 	0.0780266 	-0.148428 	
5.32572e-11 	0.00532572 	0.00532572 	0 	
0.000113889 	6.1154e-09 	0.843947 	0.0780266 	0.0780266 	-0.148428 	
5.32572e-11 	0.00532572 	0.00532572 	0 	
0.000116667 	6.1154e-09 	0.843947 	0.0780266 	0.0780266 	-0.148428 	
5.32572e-11 	0.00532572 	0.00532572 	0 	
0.000119444 	6.1155e-09 	0.843947 	0.0780266 	0.0780266 	-0.148428 	
5.32572e-11 	0.00532572 	0.00532572 	0 	
0.000122222 	6.12005e-09 	0.843947 	0.0780266 	0.0780266 	-0.148428 	
5.32572e-11 	0.00532572 	0.00532572 	0 	
0.000125 	4.95643e-09 	0.843947 	0.0780266 	0.0780266 	-0.148428 	
5.32572e-11 	0.00532572 	0.00532572 	0 	
ZONE T = "t = 2e-08 [s]" I = 10 SOLUTIONTIME = 2.0000000000000E-08
0.0001 	6.12775e-09 	0.843947 	0.0780266 	0.0780266 	-0.148428 	
1.06514e-10 	0.00532572 	0.00532572 	0 	
0.000102778 	6.11532e-09 	0.843947 	0.0780266 	0.0780266 	-0.148428 	
1.06514e-10 	0.00532572 	0.00532572 	0 	
0.000105556 	6.115e-09 	0.843947 	0.0780266 	0.0780266 	-0.148428 	
1.06514e-10 	0.00532572 	0.00532572 	0 	
0.000108333 	6.115e-09 	0.843947 	0.0780266 	0.0780266 	-0.148428 	
1.06514e-10 	0.00532572 	0.00532572 	0 	
0.000111111 	6.115e-09 	0.843947 	0.0780266 	0.0780266 	-0.148428 	
1.06514e-10 	0.00532572 	0.00532572 	0 	
0.000113889 	6.115e-09 	0.843947 	0.0780266 	0.0780266 	-0.148428 	
1.06514e-10 	0.00532572 	0.00532572 	0 	
0.000116667 	6.115e-09 	0.843947 	0.0780266 	0.0780266 	-0.148428 	
1.06514e-10 	0.00532572 	0.00532572 	0 	
0.000119444 	6.11516e-09 	0.843947 	0.0780266 	0.0780266 	-0.148428 	
1.06514e-10 	0.00532572 	0.00532572 	0 	
0.000122222 	6.12394e-09 	0.843947 	0.0780266 	0.0780266 	-0.148428 	
1.06514e-10 	0.00532572 	0.00532572 	0 	
0.000125 	4.95614e-09 	0.843947 	0.0780266 	0.0780266 	-0.148428 	
1.06514e-10 	0.00532572 	0.00532572 	0 	
ZONE T = "t = 3e-08 [s]" I = 10 SOLUTIONTIME = 3.0000000000000E-08
0.0001 	6.13384e-09 	0.843947 	0.0780266 	0.0780266 	-0.148428 	
1.59772e-10 	0.00532572 	0.00532572 	0 	
0.000102778 	6.11544e-09 	0.843947 	0.0780266 	0.0780266 	-0.148428 	
1.59772e-10 	0.00532572 	0.00532572 	0 	
0.000105556 	6.11501e-09 	0.843947 	0.0780266 	0.0780266 	-0.148428 	
1.59772e-10 	0.00532572 	0.00532572 	0 	
0.000108333 	6.11501e-09 	0.843947 	0.0780266 	0.0780266 	-0.148428 	
1.59772e-10 	0.00532572 	0.00532572 	0 	
0.000111111 	6.11501e-09 	0.843947 	0.0780266 	0.0780266 	-0.148428 	
1.59772e-10 	0.00532572 	0.00532572 	0 	
0.000113889 	6.11501e-09 	0.843947 	0.0780266 	0.0780266 	-0.148428 	
1.59772e-10 	0.00532572 	0.00532572 	0 	
0.000116667 	6.11501e-09 	0.843947 	0.0780266 	0.0780266 	-0.148428 	
1.59772e-10 	0.00532572 	0.00532572 	0 	
0.000119444 	6.11533e-09 	0.843947 	0.0780266 	0.0780266 	-0.148428 	
1.59772e-10 	0.00532572 	0.00532572 	0 	
0.000122222 	6.12823e-09 	0.843947 	0.0780266 	0.0780266 	-0.148428 	
1.59772e-10 	0.00532572 	0.00532572 	0 	
0.000125 	4.95626e-09 	0.843947 	0.0780266 	0.0780266 	-0.148428 	
1.59772e-10 	0.00532572 	0.00532572 	0 	
ZONE T = "t = 4e-08 [s]" I = 10 SOLUTIONTIME = 4.0000000000000E-08
0.0001 	6.13961e-09 	0.843947 	0.0780266 	0.0780266 	-0.148428 	
2.13029e-10 	0.00532572 	0.00532572 	0 	
0.000102778 	6.11566e-09 	0.843947 	0.0780266 	0.0780266 	-0.148428 	
2.13029e-10 	0.00532572 	0.00532572 	0 	
0.000105556 	6.11498e-09 	0.843947 	0.0780266 	0.0780266 	-0.148428 	
2.13029e-10 	0.00532572 	0.00532572 	0 	
0.000108333 	6.11498e-09 	0.843947 	0.0780266 	0.0780266 	-0.148428 	
2.13029e-10 	0.00532572 	0.00532572 	0 	
0.000111111 	6.11497e-09 	0.843947 	0.0780266 	0.0780266 	-0.148428 	
2.13029e-10 	0.00532572 	0.00532572 	0 	
0.000113889 	6.11498e-09 	0.843947 	0.0780266 	0.0780266 	-0.148428 	
2.13029e-10 	0.00532572 	0.00532572 	0 	
0.000116667 	6.11503e-09 	0.843947 	0.0780266 	0.0780266 	-0.148428 	
2.13029e-10 	0.00532572 	0.00532572 	0 	
0.000119444 	6.11551e-09 	0.843947 	0.0780266 	0.0780266 	-0.148428 	
2.13029e-10 	0.00532572 	0.00532572 	0 	
0.000122222 	6.13253e-09 	0.843947 	0.0780266 	0.0780266 	-0.148428 	
2.13029e-10 	0.00532572 	0.00532572 	0 	
0.000125 	4.95662e-09 	0.843947 	0.0780266 	0.0780266 	-0.148428 	
2.13029e-10 	0.00532572 	0.00532572 	0 	
ZONE T = "t = 5.5e-08 [s]" I = 10 SOLUTIONTIME = 5.5000000000000E-08
0.0001 	6.14848e-09 	0.843947 	0.0780266 	0.0780266 	-0.148428 	
2.92915e-10 	0.00532572 	0.00532572 	0 	
0.000102778 	6.1163e-09 	0.843947 	0.0780266 	0.0780266 	-0.148428 	
2.92915e-10 	0.00532572 	0.00532572 	0 	
0.000105556 	6.11492e-09 	0.843947 	0.0780266 	0.0780266 	-0.148428 	
2.92915e-10 	0.00532572 	0.00532572 	0 	
0.000108333 	6.11485e-09 	0.843947 	0.0780266 	0.0780266 	-0.148428 	
2.92915e-10 	0.00532572 	0.00532572 	0 	
0.000111111 	6.11485e-09 	0.843947 	0.0780266 	0.0780266 	-0.148428 	
2.92915e-10 	0.00532572 	0.00532572 	0 	
0.000113889 	6.11485e-09 	0.843947 	0.0780266 	0.0780266 	-0.148428 	
2.92915e-10 	0.00532572 	0.00532572 	0 	
0.000116667 	6.11488e-09 	0.843947 	0.0780266 	0.0780266 	-0.148428 	
2.92915e-10 	0.00532572 	0.00532572 	0 	
0.000119444 	6.11591e-09 	0.843947 	0.0780266 	0.0780266 	-0.148428 	
2.92915e-10 	0.00532572 	0.00532572 	0 	
0.000122222 	6.1385e-09 	0.843947 	0.0780266 	0.0780266 	-0.148428 	
2.92915e-10 	0.00532572 	0.00532572 	0 	
0.000125 	4.95657e-09 	0.843947 	0.0780266 	0.0780266 	-0.148428 	
2.92915e-10 	0.00532572 	0.00532572 	0 	
ZONE T = "t = 7.75e-08 [s]" I = 10 SOLUTIONTIME = 7.7500000000000E-08
0.0001 	6.16073e-09 	0.843947 	0.0780266 	0.0780266 	-0.148428 	
4.12743e-10 	0.00532572 	0.00532572 	0 	
0.000102778 	6.11745e-09 	0.843947 	0.0780266 	0.0780266 	-0.148428 	
4.12743e-10 	0.00532572 	0.00532572 	0 	
0.000105556 	6.11503e-09 	0.843947 	0.0780266 	0.0780266 	-0.148428 	
4.12743e-10 	0.00532572 	0.00532572 	0 	
0.000108333 	6.11495e-09 	0.843947 	0.0780266 	0.0780266 	-0.148428 	
4.12743e-10 	0.00532572 	0.00532572 	0 	
0.000111111 	6.11495e-09 	0.843947 	0.0780266 	0.0780266 	-0.148428 	
4.12743e-10 	0.00532572 	0.00532572 	0 	
0.000113889 	6.11495e-09 	0.843947 	0.0780266 	0.0780266 	-0.148428 	
4.12743e-10 	0.00532572 	0.00532572 	0 	
0.000116667 	6.11505e-09 	0.843947 	0.0780266 	0.0780266 	-0.148428 	
4.12743e-10 	0.00532572 	0.00532572 	0 	
0.000119444 	6.11676e-09 	0.843947 	0.0780266 	0.0780266 	-0.148428 	
4.12743e-10 	0.00532572 	0.00532572 	0 	
0.000122222 	6.14726e-09 	0.843947 	0.0780266 	0.0780266 	-0.148428 	
4.12743e-10 	0.00532572 	0.00532572 	0 	
0.000125 	4.95703e-09 	0.843947 	0.0780266 	0.0780266 	-0.148428 	
4.12743e-10 	0.00532572 	0.00532572 	0 	
ZONE T = "t = 1.1125e-07 [s]" I = 10 SOLUTIONTIME = 1.1125000000000E-07
0.0001 	6.1781e-09 	0.843947 	0.0780266 	0.0780266 	-0.148428 	
5.92486e-10 	0.00532572 	0.00532572 	0 	
0.000102778 	6.11985e-09 	0.843947 	0.0780266 	0.0780266 	-0.148428 	
5.92486e-10 	0.00532572 	0.00532572 	0 	
0.000105556 	6.11523e-09 	0.843947 	0.0780266 	0.0780266 	-0.148428 	
5.92486e-10 	0.00532572 	0.00532572 	0 	
0.000108333 	6.11493e-09 	0.843947 	0.0780266 	0.0780266 	-0.148428 	
5.92486e-10 	0.00532572 	0.00532572 	0 	
0.000111111 	6.11493e-09 	0.843947 	0.0780266 	0.0780266 	-0.148428 	
5.92486e-10 	0.00532572 	0.00532572 	0 	
0.000113889 	6.11495e-09 	0.843947 	0.0780266 	0.0780266 	-0.148428 	
5.92486e-10 	0.00532572 	0.00532572 	0 	
0.000116667 	6.11512e-09 	0.843947 	0.0780266 	0.0780266 	-0.148428 	
5.92486e-10 	0.00532572 	0.00532572 	0 	
0.000119444 	6.11833e-09 	0.843947 	0.0780266 	0.0780266 	-0.148428 	
5.92486e-10 	0.00532572 	0.00532572 	0 	
0.000122222 	6.15938e-09 	0.843947 	0.0780266 	0.0780266 	-0.148428 	
5.92486e-10 	0.00532572 	0.00532572 	0 	
0.000125 	4.95762e-09 	0.843947 	0.0780266 	0.0780266 	-0.148428 	
5.92486e-10 	0.00532572 	0.00532572 	0 	
ZONE T = "t = 1.61875e-07 [s]" I = 10 SOLUTIONTIME = 1.6187500000000E-07
0.0001 	6.20141e-09 	0.843947 	0.0780266 	0.0780266 	-0.148428 	
8.62101e-10 	0.00532572 	0.00532572 	0 	
0.000102778 	6.12431e-09 	0.843947 	0.0780266 	0.0780266 	-0.148428 	
8.62101e-10 	0.00532572 	0.00532572 	0 	
0.000105556 	6.11571e-09 	0.843947 	0.0780266 	0.0780266 	-0.148428 	
8.62101e-10 	0.00532572 	0.00532572 	0 	
0.000108333 	6.11496e-09 	0.843947 	0.0780266 	0.0780266 	-0.148428 	
8.62101e-10 	0.00532572 	0.00532572 	0 	
0.000111111 	6.11491e-09 	0.843947 	0.0780266 	0.0780266 	-0.148428 	
8.62101e-10 	0.00532572 	0.00532572 	0 	
0.000113889 	6.11495e-09 	0.843947 	0.0780266 	0.0780266 	-0.148428 	
8.62101e-10 	0.00532572 	0.00532572 	0 	
0.000116667 	6.1155e-09 	0.843947 	0.0780266 	0.0780266 	-0.148428 	
8.62101e-10 	0.00532572 	0.00532572 	0 	
0.000119444 	6.12157e-09 	0.843947 	0.0780266 	0.0780266 	-0.148428 	
8.62101e-10 	0.00532572 	0.00532572 	0 	
0.000122222 	6.17587e-09 	0.843947 	0.0780266 	0.0780266 	-0.148428 	
8.62101e-10 	0.00532572 	0.00532572 	0 	
0.000125 	4.95859e-09 	0.843947 	0.0780266 	0.0780266 	-0.148428 	
8.62101e-10 	0.00532572 	0.00532572 	0 	
ZONE T = "t = 2.37813e-07 [s]" I = 10 SOLUTIONTIME = 2.3781250000000E-07
0.0001 	6.23176e-09 	0.843947 	0.0780266 	0.0780266 	-0.148428 	
1.26652e-09 	0.00532572 	0.00532572 	0 	
0.000102778 	6.13259e-09 	0.843947 	0.0780266 	0.0780266 	-0.148428 	
1.26652e-09 	0.00532572 	0.00532572 	0 	
0.000105556 	6.11711e-09 	0.843947 	0.0780266 	0.0780266 	-0.148428 	
1.26652e-09 	0.00532572 	0.00532572 	0 	
0.000108333 	6.1152e-09 	0.843947 	0.0780266 	0.0780266 	-0.148428 	
1.26652e-09 	0.00532572 	0.00532572 	0 	
0.000111111 	6.11501e-09 	0.843947 	0.0780266 	0.0780266 	-0.148428 	
1.26652e-09 	0.00532572 	0.00532572 	0 	
0.000113889 	6.11514e-09 	0.843947 	0.0780266 	0.0780266 	-0.148428 	
1.26652e-09 	0.00532572 	0.00532572 	0 	
0.000116667 	6.11648e-09 	0.843947 	0.0780266 	0.0780266 	-0.148428 	
1.26652e-09 	0.00532572 	0.00532572 	0 	
0.000119444 	6.12739e-09 	0.843947 	0.0780266 	0.0780266 	-0.148428 	
1.26652e-09 	0.00532572 	0.00532572 	0 	
0.000122222 	6.19727e-09 	0.843947 	0.0780266 	0.0780266 	-0.148428 	
1.26652e-09 	0.00532572 	0.00532572 	0 	
0.000125 	4.96014e-09 	0.843947 	0.0780266 	0.0780266 	-0.148428 	
1.26652e-09 	0.00532572 	0.00532572 	0 	
ZONE T = "t = 3.51719e-07 [s]" I = 10 SOLUTIONTIME = 3.5171875000000E-07
0.0001 	6.26921e-09 	0.843947 	0.0780266 	0.0780266 	-0.148428 	
1.87316e-09 	0.00532572 	0.00532572 	0 	
0.000102778 	6.14674e-09 	0.843947 	0.0780266 	0.0780266 	-0.148428 	
1.87316e-09 	0.00532572 	0.00532572 	0 	
0.000105556 	6.12029e-09 	0.843947 	0.0780266 	0.0780266 	-0.148428 	
1.87316e-09 	0.00532572 	0.00532572 	0 	
0.000108333 	6.11571e-09 	0.843947 	0.0780266 	0.0780266 	-0.148428 	
1.87316e-09 	0.00532572 	0.00532572 	0 	
0.000111111 	6.11509e-09 	0.843947 	0.0780266 	0.0780266 	-0.148428 	
1.87316e-09 	0.00532572 	0.00532572 	0 	
0.000113889 	6.11548e-09 	0.843947 	0.0780266 	0.0780266 	-0.148428 	
1.87316e-09 	0.00532572 	0.00532572 	0 	
0.000116667 	6.11869e-09 	0.843947 	0.0780266 	0.0780266 	-0.148428 	
1.87316e-09 	0.00532572 	0.00532572 	0 	
0.000119444 	6.13731e-09 	0.843947 	0.0780266 	0.0780266 	-0.148428 	
1.87316e-09 	0.00532572 	0.00532572 	0 	
0.000122222 	6.22359e-09 	0.843947 	0.0780266 	0.0780266 	-0.148428 	
1.87316e-09 	0.00532572 	0.00532572 	0 	
0.000125 	4.96243e-09 	0.843947 	0.0780266 	0.0780266 	-0.148428 	
1.87316e-09 	0.00532572 	0.00532572 	0 	
ZONE T = "t = 5.22578e-07 [s]" I = 10 SOLUTIONTIME = 5.2257812500000E-07
0.0001 	6.31295e-09 	0.843947 	0.0780266 	0.0780266 	-0.148428 	
2.7831e-09 	0.00532572 	0.00532572 	0 	
0.000102778 	6.16927e-09 	0.843947 	0.0780266 	0.0780266 	-0.148428 	
2.7831e-09 	0.00532572 	0.00532572 	0 	
0.000105556 	6.12739e-09 	0.843947 	0.0780266 	0.0780266 	-0.148428 	
2.7831e-09 	0.00532572 	0.00532572 	0 	
0.000108333 	6.11752e-09 	0.843947 	0.0780266 	0.0780266 	-0.148428 	
2.7831e-09 	0.00532572 	0.00532572 	0 	
0.000111111 	6.11573e-09 	0.843947 	0.0780266 	0.0780266 	-0.148428 	
2.7831e-09 	0.00532572 	0.00532572 	0 	
0.000113889 	6.11678e-09 	0.843947 	0.0780266 	0.0780266 	-0.148428 	
2.7831e-09 	0.00532572 	0.00532572 	0 	
0.000116667 	6.12371e-09 	0.843947 	0.0780266 	0.0780266 	-0.148428 	
2.7831e-09 	0.00532572 	0.00532572 	0 	
0.000119444 	6.15321e-09 	0.843947 	0.0780266 	0.0780266 	-0.148428 	
2.7831e-09 	0.00532572 	0.00532572 	0 	
0.000122222 	6.25444e-09 	0.843947 	0.0780266 	0.0780266 	-0.148428 	
2.7831e-09 	0.00532572 	0.00532572 	0 	
0.000125 	4.96618e-09 	0.843947 	0.0780266 	0.0780266 	-0.148428 	
2.7831e-09 	0.00532572 	0.00532572 	0 	
ZONE T = "t = 7.78867e-07 [s]" I = 10 SOLUTIONTIME = 7.7886718750000E-07
0.0001 	6.3613e-09 	0.843947 	0.0780266 	0.0780266 	-0.148428 	
4.14803e-09 	0.00532572 	0.00532572 	0 	
0.000102778 	6.202e-09 	0.843947 	0.0780266 	0.0780266 	-0.148428 	
4.14803e-09 	0.00532572 	0.00532572 	0 	
0.000105556 	6.14126e-09 	0.843947 	0.0780266 	0.0780266 	-0.148428 	
4.14803e-09 	0.00532572 	0.00532572 	0 	
0.000108333 	6.12234e-09 	0.843947 	0.0780266 	0.0780266 	-0.148428 	
4.14803e-09 	0.00532572 	0.00532572 	0 	
0.000111111 	6.11797e-09 	0.843947 	0.0780266 	0.0780266 	-0.148428 	
4.14803e-09 	0.00532572 	0.00532572 	0 	
0.000113889 	6.12036e-09 	0.843947 	0.0780266 	0.0780266 	-0.148428 	
4.14803e-09 	0.00532572 	0.00532572 	0 	
0.000116667 	6.13352e-09 	0.843947 	0.0780266 	0.0780266 	-0.148428 	
4.14803e-09 	0.00532572 	0.00532572 	0 	
0.000119444 	6.17627e-09 	0.843947 	0.0780266 	0.0780266 	-0.148428 	
4.14803e-09 	0.00532572 	0.00532572 	0 	
0.000122222 	6.28851e-09 	0.843947 	0.0780266 	0.0780266 	-0.148428 	
4.14803e-09 	0.00532572 	0.00532572 	0 	
0.000125 	4.97206e-09 	0.843947 	0.0780266 	0.0780266 	-0.148428 	
4.14803e-09 	0.00532572 	0.00532572 	0 	
ZONE T = "t = 1.1633e-06 [s]" I = 10 SOLUTIONTIME = 1.1633007812500E-06
0.0001 	6.41256e-09 	0.843947 	0.0780266 	0.0780266 	-0.148428 	
6.19541e-09 	0.00532572 	0.00532572 	0 	
0.000102778 	6.24541e-09 	0.843947 	0.0780266 	0.0780266 	-0.148428 	
6.19541e-09 	0.00532572 	0.00532572 	0 	
0.000105556 	6.16536e-09 	0.843947 	0.0780266 	0.0780266 	-0.148428 	
6.19541e-09 	0.00532572 	0.00532572 	0 	
0.000108333 	6.13366e-09 	0.843947 	0.0780266 	0.0780266 	-0.148428 	
6.19541e-09 	0.00532572 	0.00532572 	0 	
0.000111111 	6.12465e-09 	0.843947 	0.0780266 	0.0780266 	-0.148428 	
6.19541e-09 	0.00532572 	0.00532572 	0 	
0.000113889 	6.12901e-09 	0.843947 	0.0780266 	0.0780266 	-0.148428 	
6.19541e-09 	0.00532572 	0.00532572 	0 	
0.000116667 	6.15073e-09 	0.843947 	0.0780266 	0.0780266 	-0.148428 	
6.19541e-09 	0.00532572 	0.00532572 	0 	
0.000119444 	6.20694e-09 	0.843947 	0.0780266 	0.0780266 	-0.148428 	
6.19541e-09 	0.00532572 	0.00532572 	0 	
0.000122222 	6.32468e-09 	0.843947 	0.0780266 	0.0780266 	-0.148428 	
6.19541e-09 	0.00532572 	0.00532572 	0 	
0.000125 	4.98126e-09 	0.843947 	0.0780266 	0.0780266 	-0.148428 	
6.19541e-09 	0.00532572 	0.00532572 	0 	
ZONE T = "t = 1.73995e-06 [s]" I = 10 SOLUTIONTIME = 1.7399511718750E-06
0.0001 	6.46623e-09 	0.843947 	0.0780266 	0.0780266 	-0.148428 	
9.26649e-09 	0.00532572 	0.00532572 	0 	
0.000102778 	6.29876e-09 	0.843947 	0.0780266 	0.0780266 	-0.148428 	
9.26649e-09 	0.00532572 	0.00532572 	0 	
0.000105556 	6.20268e-09 	0.843947 	0.0780266 	0.0780266 	-0.148428 	
9.26649e-09 	0.00532572 	0.00532572 	0 	
0.000108333 	6.15653e-09 	0.843947 	0.0780266 	0.0780266 	-0.148428 	
9.26649e-09 	0.00532572 	0.00532572 	0 	
0.000111111 	6.14097e-09 	0.843947 	0.0780266 	0.0780266 	-0.148428 	
9.26649e-09 	0.00532572 	0.00532572 	0 	
0.000113889 	6.14725e-09 	0.843947 	0.0780266 	0.0780266 	-0.148428 	
9.26649e-09 	0.00532572 	0.00532572 	0 	
0.000116667 	6.1779e-09 	0.843947 	0.0780266 	0.0780266 	-0.148428 	
9.26649e-09 	0.00532572 	0.00532572 	0 	
0.000119444 	6.2449e-09 	0.843947 	0.0780266 	0.0780266 	-0.148428 	
9.26649e-09 	0.00532572 	0.00532572 	0 	
0.000122222 	6.36268e-09 	0.843947 	0.0780266 	0.0780266 	-0.148428 	
9.26649e-09 	0.00532572 	0.00532572 	0 	
0.000125 	4.9954e-09 	0.843947 	0.0780266 	0.0780266 	-0.148428 	
9.26649e-09 	0.00532572 	0.00532572 	0 	
ZONE T = "t = 2.60493e-06 [s]" I = 10 SOLUTIONTIME = 2.6049267578125E-06
0.0001 	6.52409e-09 	0.843947 	0.0780266 	0.0780266 	-0.148428 	
1.38731e-08 	0.00532572 	0.00532572 	0 	
0.000102778 	6.36178e-09 	0.843947 	0.0780266 	0.0780266 	-0.148428 	
1.38731e-08 	0.00532572 	0.00532572 	0 	
0.000105556 	6.2557e-09 	0.843947 	0.0780266 	0.0780266 	-0.148428 	
1.38731e-08 	0.00532572 	0.00532572 	0 	
0.000108333 	6.19691e-09 	0.843947 	0.0780266 	0.0780266 	-0.148428 	
1.38731e-08 	0.00532572 	0.00532572 	0 	
0.000111111 	6.17415e-09 	0.843947 	0.0780266 	0.0780266 	-0.148428 	
1.38731e-08 	0.00532572 	0.00532572 	0 	
0.000113889 	6.18099e-09 	0.843947 	0.0780266 	0.0780266 	-0.148428 	
1.38731e-08 	0.00532572 	0.00532572 	0 	
0.000116667 	6.21794e-09 	0.843947 	0.0780266 	0.0780266 	-0.148428 	
1.38731e-08 	0.00532572 	0.00532572 	0 	
0.000119444 	6.29061e-09 	0.843947 	0.0780266 	0.0780266 	-0.148428 	
1.38731e-08 	0.00532572 	0.00532572 	0 	
0.000122222 	6.40406e-09 	0.843947 	0.0780266 	0.0780266 	-0.148428 	
1.38731e-08 	0.00532572 	0.00532572 	0 	
0.000125 	5.01669e-09 	0.843947 	0.0780266 	0.0780266 	-0.148428 	
1.38731e-08 	0.00532572 	0.00532572 	0 	
ZONE T = "t = 3.90239e-06 [s]" I = 10 SOLUTIONTIME = 3.9023901367188E-06
0.0001 	6.59065e-09 	0.843947 	0.0780266 	0.0780266 	-0.148428 	
2.0783e-08 	0.00532572 	0.00532572 	0 	
0.000102778 	6.4367e-09 	0.843947 	0.0780266 	0.0780266 	-0.148428 	
2.0783e-08 	0.00532572 	0.00532572 	0 	
0.000105556 	6.32731e-09 	0.843947 	0.0780266 	0.0780266 	-0.148428 	
2.0783e-08 	0.00532572 	0.00532572 	0 	
0.000108333 	6.26051e-09 	0.843947 	0.0780266 	0.0780266 	-0.148428 	
2.0783e-08 	0.00532572 	0.00532572 	0 	
0.000111111 	6.23153e-09 	0.843947 	0.0780266 	0.0780266 	-0.148428 	
2.0783e-08 	0.00532572 	0.00532572 	0 	
0.000113889 	6.23667e-09 	0.843947 	0.0780266 	0.0780266 	-0.148428 	
2.0783e-08 	0.00532572 	0.00532572 	0 	
0.000116667 	6.27493e-09 	0.843947 	0.0780266 	0.0780266 	-0.148428 	
2.0783e-08 	0.00532572 	0.00532572 	0 	
0.000119444 	6.34708e-09 	0.843947 	0.0780266 	0.0780266 	-0.148428 	
2.0783e-08 	0.00532572 	0.00532572 	0 	
0.000122222 	6.4528e-09 	0.843947 	0.0780266 	0.0780266 	-0.148428 	
2.0783e-08 	0.00532572 	0.00532572 	0 	
0.000125 	5.04822e-09 	0.843947 	0.0780266 	0.0780266 	-0.148428 	
2.0783e-08 	0.00532572 	0.00532572 	0 	
ZONE T = "t = 5.84859e-06 [s]" I = 10 SOLUTIONTIME = 5.8485852050781E-06
0.0001 	6.67297e-09 	0.843947 	0.0780266 	0.0780266 	-0.148428 	
3.11479e-08 	0.00532572 	0.00532572 	0 	
0.000102778 	6.52912e-09 	0.843947 	0.0780266 	0.0780266 	-0.148428 	
3.11479e-08 	0.00532572 	0.00532572 	0 	
0.000105556 	6.4219e-09 	0.843947 	0.0780266 	0.0780266 	-0.148428 	
3.11479e-08 	0.00532572 	0.00532572 	0 	
0.000108333 	6.3522e-09 	0.843947 	0.0780266 	0.0780266 	-0.148428 	
3.11479e-08 	0.00532572 	0.00532572 	0 	
0.000111111 	6.31884e-09 	0.843947 	0.0780266 	0.0780266 	-0.148428 	
3.11479e-08 	0.00532572 	0.00532572 	0 	
0.000113889 	6.3201e-09 	0.843947 	0.0780266 	0.0780266 	-0.148428 	
3.11479e-08 	0.00532572 	0.00532572 	0 	
0.000116667 	6.35443e-09 	0.843947 	0.0780266 	0.0780266 	-0.148428 	
3.11479e-08 	0.00532572 	0.00532572 	0 	
0.000119444 	6.42029e-09 	0.843947 	0.0780266 	0.0780266 	-0.148428 	
3.11479e-08 	0.00532572 	0.00532572 	0 	
0.000122222 	6.51518e-09 	0.843947 	0.0780266 	0.0780266 	-0.148428 	
3.11479e-08 	0.00532572 	0.00532572 	0 	
0.000125 	5.09399e-09 	0.843947 	0.0780266 	0.0780266 	-0.148428 	
3.11479e-08 	0.00532572 	0.00532572 	0 	
ZONE T = "t = 8.76788e-06 [s]" I = 10 SOLUTIONTIME = 8.7678778076172E-06
0.0001 	6.77958e-09 	0.843947 	0.0780266 	0.0780266 	-0.148428 	
4.66953e-08 	0.00532572 	0.00532572 	0 	
0.000102778 	6.64687e-09 	0.843947 	0.0780266 	0.0780266 	-0.148428 	
4.66953e-08 	0.00532572 	0.00532572 	0 	
0.000105556 	6.54529e-09 	0.843947 	0.0780266 	0.0780266 	-0.148428 	
4.66953e-08 	0.00532572 	0.00532572 	0 	
0.000108333 	6.47633e-09 	0.843947 	0.0780266 	0.0780266 	-0.148428 	
4.66953e-08 	0.00532572 	0.00532572 	0 	
0.000111111 	6.44017e-09 	0.843947 	0.0780266 	0.0780266 	-0.148428 	
4.66953e-08 	0.00532572 	0.00532572 	0 	
0.000113889 	6.43608e-09 	0.843947 	0.0780266 	0.0780266 	-0.148428 	
4.66953e-08 	0.00532572 	0.00532572 	0 	
0.000116667 	6.46264e-09 	0.843947 	0.0780266 	0.0780266 	-0.148428 	
4.66953e-08 	0.00532572 	0.00532572 	0 	
0.000119444 	6.51781e-09 	0.843947 	0.0780266 	0.0780266 	-0.148428 	
4.66953e-08 	0.00532572 	0.00532572 	0 	
0.000122222 	6.59874e-09 	0.843947 	0.0780266 	0.0780266 	-0.148428 	
4.66953e-08 	0.00532572 	0.00532572 	0 	
0.000125 	5.1593e-09 	0.843947 	0.0780266 	0.0780266 	-0.148428 	
4.66953e-08 	0.00532572 	0.00532572 	0 	
ZONE T = "t = 1.31468e-05 [s]" I = 10 SOLUTIONTIME = 1.3146816711426E-05
0.0001 	6.91907e-09 	0.843947 	0.0780266 	0.0780266 	-0.148428 	
7.00163e-08 	0.00532572 	0.00532572 	0 	
0.000102778 	6.798e-09 	0.843947 	0.0780266 	0.0780266 	-0.148428 	
7.00162e-08 	0.00532572 	0.00532572 	0 	
0.000105556 	6.70356e-09 	0.843947 	0.0780266 	0.0780266 	-0.148428 	
7.00162e-08 	0.00532572 	0.00532572 	0 	
0.000108333 	6.637e-09 	0.843947 	0.0780266 	0.0780266 	-0.148428 	
7.00162e-08 	0.00532572 	0.00532572 	0 	
0.000111111 	6.59876e-09 	0.843947 	0.0780266 	0.0780266 	-0.148428 	
7.00162e-08 	0.00532572 	0.00532572 	0 	
0.000113889 	6.58847e-09 	0.843947 	0.0780266 	0.0780266 	-0.148428 	
7.00162e-08 	0.00532572 	0.00532572 	0 	
0.000116667 	6.60503e-09 	0.843947 	0.0780266 	0.0780266 	-0.148428 	
7.00162e-08 	0.00532572 	0.00532572 	0 	
0.000119444 	6.64667e-09 	0.843947 	0.0780266 	0.0780266 	-0.148428 	
7.00162e-08 	0.00532572 	0.00532572 	0 	
0.000122222 	6.71103e-09 	0.843947 	0.0780266 	0.0780266 	-0.148428 	
7.00162e-08 	0.00532572 	0.00532572 	0 	
0.000125 	5.25081e-09 	0.843947 	0.0780266 	0.0780266 	-0.148428 	
7.00162e-08 	0.00532572 	0.00532572 	0 	
ZONE T = "t = 1.97152e-05 [s]" I = 10 SOLUTIONTIME = 1.9715225067139E-05
0.0001 	7.09936e-09 	0.843947 	0.0780266 	0.0780266 	-0.148428 	
1.04998e-07 	0.00532572 	0.00532572 	0 	
0.000102778 	6.9895e-09 	0.843947 	0.0780266 	0.0780266 	-0.148428 	
1.04998e-07 	0.00532572 	0.00532572 	0 	
0.000105556 	6.90213e-09 	0.843947 	0.0780266 	0.0780266 	-0.148428 	
1.04998e-07 	0.00532572 	0.00532572 	0 	
0.000108333 	6.83809e-09 	0.843947 	0.0780266 	0.0780266 	-0.148428 	
1.04998e-07 	0.00532572 	0.00532572 	0 	
0.000111111 	6.79767e-09 	0.843947 	0.0780266 	0.0780266 	-0.148428 	
1.04998e-07 	0.00532572 	0.00532572 	0 	
0.000113889 	6.78061e-09 	0.843947 	0.0780266 	0.0780266 	-0.148428 	
1.04998e-07 	0.00532572 	0.00532572 	0 	
0.000116667 	6.78613e-09 	0.843947 	0.0780266 	0.0780266 	-0.148428 	
1.04998e-07 	0.00532572 	0.00532572 	0 	
0.000119444 	6.81292e-09 	0.843947 	0.0780266 	0.0780266 	-0.148428 	
1.04998e-07 	0.00532572 	0.00532572 	0 	
0.000122222 	6.85924e-09 	0.843947 	0.0780266 	0.0780266 	-0.148428 	
1.04998e-07 	0.00532572 	0.00532572 	0 	
0.000125 	5.37656e-09 	0.843947 	0.0780266 	0.0780266 	-0.148428 	
1.04998e-07 	0.00532572 	0.00532572 	0 	
ZONE T = "t = 2.95678e-05 [s]" I = 10 SOLUTIONTIME = 2.9567837600708E-05
0.0001 	7.32799e-09 	0.843947 	0.0780266 	0.0780266 	-0.148428 	
1.5747e-07 	0.00532572 	0.00532572 	0 	
0.000102778 	7.22779e-09 	0.843947 	0.0780266 	0.0780266 	-0.148428 	
1.5747e-07 	0.00532572 	0.00532572 	0 	
0.000105556 	7.14625e-09 	0.843947 	0.0780266 	0.0780266 	-0.148428 	
1.5747e-07 	0.00532572 	0.00532572 	0 	
0.000108333 	7.08383e-09 	0.843947 	0.0780266 	0.0780266 	-0.148428 	
1.5747e-07 	0.00532572 	0.00532572 	0 	
0.000111111 	7.04065e-09 	0.843947 	0.0780266 	0.0780266 	-0.148428 	
1.5747e-07 	0.00532572 	0.00532572 	0 	
0.000113889 	7.0165e-09 	0.843947 	0.0780266 	0.0780266 	-0.148428 	
1.5747e-07 	0.00532572 	0.00532572 	0 	
0.000116667 	7.01082e-09 	0.843947 	0.0780266 	0.0780266 	-0.148428 	
1.5747e-07 	0.00532572 	0.00532572 	0 	
0.000119444 	7.02274e-09 	0.843947 	0.0780266 	0.0780266 	-0.148428 	
1.5747e-07 	0.00532572 	0.00532572 	0 	
0.000122222 	7.0511e-09 	0.843947 	0.0780266 	0.0780266 	-0.148428 	
1.5747e-07 	0.00532572 	0.00532572 	0 	
0.000125 	5.54604e-09 	0.843947 	0.0780266 	0.0780266 	-0.148428 	
1.5747e-07 	0.00532572 	0.00532572 	0 	
ZONE T = "t = 4.43468e-05 [s]" I = 10 SOLUTIONTIME = 4.4346756401062E-05
0.0001 	7.61331e-09 	0.843947 	0.0780266 	0.0780266 	-0.148428 	
2.36178e-07 	0.00532572 	0.00532572 	0 	
0.000102778 	7.52046e-09 	0.843947 	0.0780266 	0.0780266 	-0.148428 	
2.36178e-07 	0.00532572 	0.00532572 	0 	
0.000105556 	7.44289e-09 	0.843947 	0.0780266 	0.0780266 	-0.148428 	
2.36178e-07 	0.00532572 	0.00532572 	0 	
0.000108333 	7.38081e-09 	0.843947 	0.0780266 	0.0780266 	-0.148428 	
2.36178e-07 	0.00532572 	0.00532572 	0 	
0.000111111 	7.33424e-09 	0.843947 	0.0780266 	0.0780266 	-0.148428 	
2.36178e-07 	0.00532572 	0.00532572 	0 	
0.000113889 	7.30299e-09 	0.843947 	0.0780266 	0.0780266 	-0.148428 	
2.36178e-07 	0.00532572 	0.00532572 	0 	
0.000116667 	7.2867e-09 	0.843947 	0.0780266 	0.0780266 	-0.148428 	
2.36178e-07 	0.00532572 	0.00532572 	0 	
0.000119444 	7.28482e-09 	0.843947 	0.0780266 	0.0780266 	-0.148428 	
2.36178e-07 	0.00532572 	0.00532572 	0 	
0.000122222 	7.29661e-09 	0.843947 	0.0780266 	0.0780266 	-0.148428 	
2.36178e-07 	0.00532572 	0.00532572 	0 	
0.000125 	5.77091e-09 	0.843947 	0.0780266 	0.0780266 	-0.148428 	
2.36178e-07 	0.00532572 	0.00532572 	0 	
ZONE T = "t = 6.65151e-05 [s]" I = 10 SOLUTIONTIME = 6.6515134601593E-05
0.0001 	7.9661e-09 	0.843947 	0.0780266 	0.0780266 	-0.148428 	
3.54241e-07 	0.00532572 	0.00532572 	0 	
0.000102778 	7.87841e-09 	0.843947 	0.0780266 	0.0780266 	-0.148428 	
3.54241e-07 	0.00532572 	0.00532572 	0 	
0.000105556 	7.80319e-09 	0.843947 	0.0780266 	0.0780266 	-0.148428 	
3.54241e-07 	0.00532572 	0.00532572 	0 	
0.000108333 	7.7405e-09 	0.843947 	0.0780266 	0.0780266 	-0.148428 	
3.54241e-07 	0.00532572 	0.00532572 	0 	
0.000111111 	7.69033e-09 	0.843947 	0.0780266 	0.0780266 	-0.148428 	
3.54241e-07 	0.00532572 	0.00532572 	0 	
0.000113889 	7.65256e-09 	0.843947 	0.0780266 	0.0780266 	-0.148428 	
3.54241e-07 	0.00532572 	0.00532572 	0 	
0.000116667 	7.62696e-09 	0.843947 	0.0780266 	0.0780266 	-0.148428 	
3.54241e-07 	0.00532572 	0.00532572 	0 	
0.000119444 	7.61319e-09 	0.843947 	0.0780266 	0.0780266 	-0.148428 	
3.54241e-07 	0.00532572 	0.00532572 	0 	
0.000122222 	7.61086e-09 	0.843947 	0.0780266 	0.0780266 	-0.148428 	
3.54241e-07 	0.00532572 	0.00532572 	0 	
0.000125 	6.06754e-09 	0.843947 	0.0780266 	0.0780266 	-0.148428 	
3.54241e-07 	0.00532572 	0.00532572 	0 	
ZONE T = "t = 9.97677e-05 [s]" I = 10 SOLUTIONTIME = 9.9767701902390E-05
0.0001 	8.40165e-09 	0.843947 	0.0780266 	0.0780266 	-0.148428 	
5.31335e-07 	0.00532572 	0.00532572 	0 	
0.000102778 	8.31814e-09 	0.843947 	0.0780266 	0.0780266 	-0.148428 	
5.31335e-07 	0.00532572 	0.00532572 	0 	
0.000105556 	8.24483e-09 	0.843947 	0.0780266 	0.0780266 	-0.148428 	
5.31335e-07 	0.00532572 	0.00532572 	0 	
0.000108333 	8.18176e-09 	0.843947 	0.0780266 	0.0780266 	-0.148428 	
5.31335e-07 	0.00532572 	0.00532572 	0 	
0.000111111 	8.12894e-09 	0.843947 	0.0780266 	0.0780266 	-0.148428 	
5.31335e-07 	0.00532572 	0.00532572 	0 	
0.000113889 	8.08629e-09 	0.843947 	0.0780266 	0.0780266 	-0.148428 	
5.31335e-07 	0.00532572 	0.00532572 	0 	
0.000116667 	8.05371e-09 	0.843947 	0.0780266 	0.0780266 	-0.148428 	
5.31335e-07 	0.00532572 	0.00532572 	0 	
0.000119444 	8.03103e-09 	0.843947 	0.0780266 	0.0780266 	-0.148428 	
5.31335e-07 	0.00532572 	0.00532572 	0 	
0.000122222 	8.01805e-09 	0.843947 	0.0780266 	0.0780266 	-0.148428 	
5.31335e-07 	0.00532572 	0.00532572 	0 	
0.000125 	6.46137e-09 	0.843947 	0.0780266 	0.0780266 	-0.148428 	
5.31335e-07 	0.00532572 	0.00532572 	0 	
ZONE T = "t = 0.000149647 [s]" I = 10 SOLUTIONTIME = 1.4964655285358E-04
0.0001 	8.94208e-09 	0.843947 	0.0780266 	0.0780266 	-0.148428 	
7.96975e-07 	0.00532572 	0.00532572 	0 	
0.000102778 	8.86387e-09 	0.843947 	0.0780266 	0.0780266 	-0.148428 	
7.96975e-07 	0.00532572 	0.00532572 	0 	
0.000105556 	8.7941e-09 	0.843947 	0.0780266 	0.0780266 	-0.148428 	
7.96975e-07 	0.00532572 	0.00532572 	0 	
0.000108333 	8.73283e-09 	0.843947 	0.0780266 	0.0780266 	-0.148428 	
7.96975e-07 	0.00532572 	0.00532572 	0 	
0.000111111 	8.68008e-09 	0.843947 	0.0780266 	0.0780266 	-0.148428 	
7.96975e-07 	0.00532572 	0.00532572 	0 	
0.000113889 	8.63586e-09 	0.843947 	0.0780266 	0.0780266 	-0.148428 	
7.96975e-07 	0.00532572 	0.00532572 	0 	
0.000116667 	8.60014e-09 	0.843947 	0.0780266 	0.0780266 	-0.148428 	