TITLE = "Solution on Domain BulkDomain1D_2"
VARIABLES = "x [m]"  
"Vel_axial(0)" 	"MF_sp(ECDMC)" 	"MF_sp(Li+)" 	"MF_sp(PF6-)" 	"Volt(Electroly)" 	"Volt(CathodeVo)" 	
"Potential Drop Electrode-Electrolyte [V]" 	"Surf_0 Equilibrium Potential Drop Electrode-Electrolyte [V]" 	"Overpotential_0 [V]" 	"Current Source [A/m^2]" 	"Li+ flux [kmol/m^2/s]" 	"Electrolyte Current [A/m^2]" 	"Electrode Current [A/m^2]" 	
"Capacity discharged [A-s]" 	"Depth of discharge [-]" 	"Capacity remaining [A-s]" 	"Initial capacity [A-s]" 	"Porosity []" 	"Surface Area [m2/m2] (area per area)" 	"Specific current (per particle area) [A/m^2]" 	"Control volume thickness [m]" 	
"Moles LiCoO2 [mol/m^2] (per electrode area)" 	"Moles CoO2 [mol/m^2] (per electrode area)" 	"qHeat_accum [J/m3]" 	"qHeat_step [W/m3]" 	"Joule_Lyte [W/m3]" 	"Joule_Solid [W/m3]" 	"electrodHeat [W/m3]" 	"OverpotHeat [W/m3]" 	"deltaSHeat [W/m3]" 	

ZONE T = "t = 0 [s]" I = 10 SOLUTIONTIME = 0.0000000000000E+00
0.000125 	0 	0.843947 	0.0780266 	0.0780266 	-0.07 	3.8 	
0 	0 	0 	0 	0 	14517 	0 	
0 	0 	0 	0 	0.3 	1.16667 	-24886.3 	5.55556e-06 	
9.99124e-05 	9.99124e-05 	0 	0.0 	 0.0 	 0.0 	 0.0 	 0.0 	 0.0 	 
0.000136111 	0 	0.843947 	0.0780266 	0.0780266 	-0.07 	3.8 	
0 	0 	0 	0 	0 	0 	-0 	
0 	0 	0 	0 	0.3 	2.33333 	-24886.3 	1.11111e-05 	
0.000199825 	0.000199825 	0 	0.0 	 0.0 	 0.0 	 0.0 	 0.0 	 0.0 	 
0.000147222 	0 	0.843947 	0.0780266 	0.0780266 	-0.07 	3.8 	
0 	0 	0 	0 	0 	0 	-0 	
0 	0 	0 	0 	0.3 	2.33333 	-24886.3 	1.11111e-05 	
0.000199825 	0.000199825 	0 	0.0 	 0.0 	 0.0 	 0.0 	 0.0 	 0.0 	 
0.000158333 	0 	0.843947 	0.0780266 	0.0780266 	-0.07 	3.8 	
0 	0 	0 	0 	0 	0 	-0 	
0 	0 	0 	0 	0.3 	2.33333 	-24886.3 	1.11111e-05 	
0.000199825 	0.000199825 	0 	0.0 	 0.0 	 0.0 	 0.0 	 0.0 	 0.0 	 
0.000169444 	0 	0.843947 	0.0780266 	0.0780266 	-0.07 	3.8 	
0 	0 	0 	0 	0 	0 	-0 	
0 	0 	0 	0 	0.3 	2.33333 	-24886.3 	1.11111e-05 	
0.000199825 	0.000199825 	0 	0.0 	 0.0 	 0.0 	 0.0 	 0.0 	 0.0 	 
0.000180556 	0 	0.843947 	0.0780266 	0.0780266 	-0.07 	3.8 	
0 	0 	0 	0 	0 	0 	-0 	
0 	0 	0 	0 	0.3 	2.33333 	-24886.3 	1.11111e-05 	
0.000199825 	0.000199825 	0 	0.0 	 0.0 	 0.0 	 0.0 	 0.0 	 0.0 	 
0.000191667 	0 	0.843947 	0.0780266 	0.0780266 	-0.07 	3.8 	
0 	0 	0 	0 	0 	0 	-0 	
0 	0 	0 	0 	0.3 	2.33333 	-24886.3 	1.11111e-05 	
0.000199825 	0.000199825 	0 	0.0 	 0.0 	 0.0 	 0.0 	 0.0 	 0.0 	 
0.000202778 	0 	0.843947 	0.0780266 	0.0780266 	-0.07 	3.8 	
0 	0 	0 	0 	0 	0 	-0 	
0 	0 	0 	0 	0.3 	2.33333 	-24886.3 	1.11111e-05 	
0.000199825 	0.000199825 	0 	0.0 	 0.0 	 0.0 	 0.0 	 0.0 	 0.0 	 
0.000213889 	0 	0.843947 	0.0780266 	0.0780266 	-0.07 	3.8 	
0 	0 	0 	0 	0 	0 	-0 	
0 	0 	0 	0 	0.3 	2.33333 	-24886.3 	1.11111e-05 	
0.000199825 	0.000199825 	0 	0.0 	 0.0 	 0.0 	 0.0 	 0.0 	 0.0 	 
0.000225 	0 	0.843947 	0.0780266 	0.0780266 	-0.07 	3.8 	
0 	0 	0 	0 	0 	0 	14517 	
0 	0 	0 	0 	0.3 	1.16667 	-24886.3 	5.55556e-06 	
9.99124e-05 	9.99124e-05 	0 	0.0 	 0.0 	 0.0 	 0.0 	 0.0 	 0.0 	 
ZONE T = "t = 1e-08 [s]" I = 10 SOLUTIONTIME = 1.0000000000000E-08
0.000125 	4.92915e-09 	0.843947 	0.0780266 	0.0780266 	-0.148426 	4.02735 	
3.87 	4.17612 	-0.306118 	-29034 	-0 	19.5092 	0.491369 	
-0 	9640.08 	0.964008 	1.92802 	0.3 	1.16667 	-0.843266 	5.55556e-06 	
9.99124e-05 	9.99124e-05 	-0.000210967 	-21096.7 	0.0293044 	0.137968 	-21096.9 	-21096.9 	0 	
0.000136111 	2.54508e-09 	0.843947 	0.0780266 	0.0780266 	-0.148426 	4.02735 	
3.87 	4.17612 	-0.306118 	-58068 	-0 	18.03 	1.96998 	
-0 	19280.2 	1.92802 	3.85603 	0.3 	2.33333 	-0.847132 	1.11111e-05 	
0.000199825 	0.000199825 	-0.000211898 	-21189.8 	0.0264198 	0.693642 	-21190.5 	-21190.5 	0 	
0.000147222 	1.28066e-10 	0.843947 	0.0780266 	0.0780266 	-0.148426 	4.02735 	
3.87 	4.17612 	-0.306118 	-58068 	-0 	16.0418 	3.95815 	
-0 	19280.2 	1.92802 	3.85603 	0.3 	2.33333 	-0.858855 	1.11111e-05 	
0.000199825 	0.000199825 	-0.000215023 	-21502.3 	0.0209331 	2.38126 	-21504.7 	-21504.7 	0 	
0.000158333 	-2.34441e-09 	0.843947 	0.0780266 	0.0780266 	-0.148426 	4.02734 	
3.87 	4.17612 	-0.306118 	-58068 	-0 	14.017 	5.98295 	
-0 	19280.2 	1.92802 	3.85603 	0.3 	2.33333 	-0.878545 	1.11111e-05 	
0.000199825 	0.000199825 	-0.000219691 	-21969.1 	0.0160052 	5.26344 	-21974.4 	-21974.4 	0 	
0.000169444 	-4.89536e-09 	0.843947 	0.0780266 	0.0780266 	-0.148426 	4.02733 	
3.87 	4.17612 	-0.306118 	-58068 	-0 	11.9368 	8.06319 	
-0 	19280.2 	1.92802 	3.85603 	0.3 	2.33333 	-0.906385 	1.11111e-05 	
0.000199825 	0.000199825 	-0.000226762 	-22676.2 	0.0116359 	9.44728 	-22685.7 	-22685.7 	0 	
0.000180556 	-7.54841e-09 	0.843947 	0.0780266 	0.0780266 	-0.148426 	4.02732 	
3.87 	4.17612 	-0.306118 	-58068 	-0 	9.78183 	10.2182 	
-0 	19280.2 	1.92802 	3.85603 	0.3 	2.33333 	-0.942632 	1.11111e-05 	
0.000199825 	0.000199825 	-0.000235724 	-23572.4 	0.00785092 	15.0883 	-23587.5 	-23587.5 	0 	
0.000191667 	-1.0328e-08 	0.843947 	0.0780266 	0.0780266 	-0.148426 	4.0273 	
3.87 	4.17612 	-0.306118 	-58068 	-0 	7.5321 	12.4679 	
-0 	19280.2 	1.92802 	3.85603 	0.3 	2.33333 	-0.987623 	1.11111e-05 	
0.000199825 	0.000199825 	-0.000246787 	-24678.7 	0.0047043 	22.3962 	-24701.1 	-24701.1 	0 	
0.000202778 	-1.32603e-08 	0.843947 	0.0780266 	0.0780266 	-0.148426 	4.02728 	
3.87 	4.17612 	-0.306118 	-58068 	-0 	5.16673 	14.8333 	
-0 	19280.2 	1.92802 	3.85603 	0.3 	2.33333 	-1.04178 	1.11111e-05 	
0.000199825 	0.000199825 	-0.000260077 	-26007.7 	0.00228253 	31.6429 	-26039.4 	-26039.4 	0 	
0.000213889 	-1.63706e-08 	0.843947 	0.0780266 	0.0780266 	-0.148426 	4.02725 	
3.87 	4.17612 	-0.306118 	-58068 	-0 	2.66378 	17.3362 	
-0 	19280.2 	1.92802 	3.85603 	0.3 	2.33333 	-1.1056 	1.11111e-05 	
0.000199825 	0.000199825 	-0.000276073 	-27607.3 	0.00070952 	43.1722 	-27650.5 	-27650.5 	0 	
0.000225 	0 	0.843947 	0.0780266 	0.0780266 	-0.148426 	4.02722 	
3.87 	4.17612 	-0.306118 	-29034 	-0 	0.687544 	19.3131 	
-0 	9640.08 	0.964008 	1.92802 	0.3 	1.16667 	-1.17967 	5.55556e-06 	
9.99124e-05 	9.99124e-05 	-0.000294164 	-29416.4 	0.000153214 	49.5553 	-29466 	-29466 	0 	
ZONE T = "t = 2e-08 [s]" I = 10 SOLUTIONTIME = 2.0000000000000E-08
0.000125 	4.92878e-09 	0.843947 	0.0780266 	0.0780266 	-0.148426 	4.02736 	
4.17578 	4.17612 	-0.00033654 	-0.98381 	9.85515e-08 	19.5086 	0.49135 	
9.8381e-13 	9640.08 	0.964008 	1.92802 	0.3 	1.16667 	-0.842315 	5.55556e-06 	
9.99124e-05 	9.99124e-05 	-0.000421442 	-21047.4 	0.0293045 	0.137957 	-21047.6 	-21047.6 	0 	
0.000136111 	2.5444e-09 	0.843947 	0.0780266 	0.0780266 	-0.148426 	4.02735 	
4.17578 	4.17612 	-0.000338083 	-1.97664 	8.8318e-08 	18.0301 	1.96991 	
1.97664e-12 	19280.2 	1.92802 	3.85603 	0.3 	2.33333 	-0.846181 	1.11111e-05 	
0.000199825 	0.000199825 	-0.000423682 	-21178.4 	0.02642 	0.693591 	-21179.2 	-21179.2 	0 	
0.000147222 	1.27402e-10 	0.843947 	0.0780266 	0.0780266 	-0.148426 	4.02735 	
4.17577 	4.17612 	-0.000342762 	-2.004 	7.79442e-08 	16.042 	3.95801 	
2.004e-12 	19280.2 	1.92802 	3.85603 	0.3 	2.33333 	-0.857904 	1.11111e-05 	
0.000199825 	0.000199825 	-0.000429536 	-21451.3 	0.0209334 	2.38109 	-21453.7 	-21453.7 	0 	
0.000158333 	-2.34523e-09 	0.843947 	0.0780266 	0.0780266 	-0.148426 	4.02734 	
4.17577 	4.17612 	-0.00035062 	-2.04994 	6.73324e-08 	14.0172 	5.98276 	
2.04994e-12 	19280.2 	1.92802 	3.85603 	0.3 	2.33333 	-0.877593 	1.11111e-05 	
0.000199825 	0.000199825 	-0.000439684 	-21999.3 	0.0160056 	5.26309 	-22004.5 	-22004.5 	0 	
0.000169444 	-4.89623e-09 	0.843947 	0.0780266 	0.0780266 	-0.148426 	4.02733 	
4.17576 	4.17612 	-0.00036173 	-2.1149 	5.63841e-08 	11.937 	8.06295 	
2.1149e-12 	19280.2 	1.92802 	3.85603 	0.3 	2.33333 	-0.905432 	1.11111e-05 	
0.000199825 	0.000199825 	-0.000453006 	-22624.4 	0.0116364 	9.44672 	-22633.8 	-22633.8 	0 	
0.000180556 	-7.54923e-09 	0.843947 	0.0780266 	0.0780266 	-0.148426 	4.02732 	
4.17574 	4.17612 	-0.000376196 	-2.19947 	4.49977e-08 	9.78209 	10.2179 	
2.19947e-12 	19280.2 	1.92802 	3.85603 	0.3 	2.33333 	-0.941678 	1.11111e-05 	
0.000199825 	0.000199825 	-0.000470939 	-23521.5 	0.00785133 	15.0875 	-23536.6 	-23536.6 	0 	
0.000191667 	-1.0329e-08 	0.843947 	0.0780266 	0.0780266 	-0.148426 	4.0273 	
4.17572 	4.17612 	-0.000394151 	-2.30445 	3.30674e-08 	7.53235 	12.4676 	
2.30445e-12 	19280.2 	1.92802 	3.85603 	0.3 	2.33333 	-0.986668 	1.11111e-05 	
0.000199825 	0.000199825 	-0.000493448 	-24666.1 	0.00470461 	22.3953 	-24688.5 	-24688.5 	0 	
0.000202778 	-1.32614e-08 	0.843947 	0.0780266 	0.0780266 	-0.148426 	4.02728 	
4.1757 	4.17612 	-0.000415763 	-2.43081 	2.04825e-08 	5.16695 	14.8331 	
2.43081e-12 	19280.2 	1.92802 	3.85603 	0.3 	2.33333 	-1.04082 	1.11111e-05 	
0.000199825 	0.000199825 	-0.00052004 	-25996.2 	0.00228271 	31.642 	-26027.9 	-26027.9 	0 	
0.000213889 	-1.63703e-08 	0.843947 	0.0780266 	0.0780266 	-0.148426 	4.02725 	
4.17568 	4.17612 	-0.000441232 	-2.57972 	7.14049e-09 	2.66391 	17.3361 	
2.57972e-12 	19280.2 	1.92802 	3.85603 	0.3 	2.33333 	-1.10464 	1.11111e-05 	
0.000199825 	0.000199825 	-0.000551625 	-27555.2 	0.000709587 	43.1715 	-27598.4 	-27598.4 	0 	
0.000225 	0 	0.843947 	0.0780266 	0.0780266 	-0.148426 	4.02722 	
4.17565 	4.17612 	-0.000470794 	-1.37628 	7.14049e-09 	0.687583 	19.3124 	
1.37628e-12 	9640.08 	0.964008 	1.92802 	0.3 	1.16667 	-1.17871 	5.55556e-06 	
9.99124e-05 	9.99124e-05 	-0.000588166 	-29400.2 	0.000153231 	49.5549 	-29449.8 	-29449.8 	0 	
ZONE T = "t = 3e-08 [s]" I = 10 SOLUTIONTIME = 3.0000000000000E-08
0.000125 	4.92879e-09 	0.843947 	0.0780266 	0.0780266 	-0.148426 	4.02736 	
4.17578 	4.17612 	-0.000336161 	-0.982701 	9.85531e-08 	19.5086 	0.49135 	
1.96651e-12 	9640.08 	0.964008 	1.92802 	0.3 	1.16667 	-0.842315 	5.55556e-06 	
9.99124e-05 	9.99124e-05 	-0.000631922 	-21048.1 	0.0293045 	0.137957 	-21048.2 	-21048.2 	0 	
0.000136111 	2.54435e-09 	0.843947 	0.0780266 	0.0780266 	-0.148426 	4.02735 	
4.17578 	4.17612 	-0.000337704 	-1.97442 	8.83186e-08 	18.0301 	1.96991 	
3.95106e-12 	19280.2 	1.92802 	3.85603 	0.3 	2.33333 	-0.846181 	1.11111e-05 	
0.000199825 	0.000199825 	-0.000635091 	-21141 	0.02642 	0.693591 	-21141.7 	-21141.7 	0 	
0.000147222 	1.27351e-10 	0.843947 	0.0780266 	0.0780266 	-0.148426 	4.02735 	
4.17578 	4.17612 	-0.000342382 	-2.00178 	7.79452e-08 	16.042 	3.95801 	
4.00577e-12 	19280.2 	1.92802 	3.85603 	0.3 	2.33333 	-0.857904 	1.11111e-05 	
0.000199825 	0.000199825 	-0.000644055 	-21451.9 	0.0209334 	2.38109 	-21454.3 	-21454.3 	0 	
0.000158333 	-2.34508e-09 	0.843947 	0.0780266 	0.0780266 	-0.148426 	4.02734 	
4.17577 	4.17612 	-0.00035024 	-2.04772 	6.73337e-08 	14.0172 	5.98276 	
4.09766e-12 	19280.2 	1.92802 	3.85603 	0.3 	2.33333 	-0.877593 	1.11111e-05 	
0.000199825 	0.000199825 	-0.000659277 	-21959.3 	0.0160056 	5.26309 	-21964.6 	-21964.6 	0 	
0.000169444 	-4.89591e-09 	0.843947 	0.0780266 	0.0780266 	-0.148426 	4.02733 	
4.17576 	4.17612 	-0.00036135 	-2.11267 	5.63856e-08 	11.937 	8.06295 	
4.22757e-12 	19280.2 	1.92802 	3.85603 	0.3 	2.33333 	-0.905432 	1.11111e-05 	
0.000199825 	0.000199825 	-0.00067925 	-22624.4 	0.0116364 	9.44672 	-22633.8 	-22633.8 	0 	
0.000180556 	-7.54907e-09 	0.843947 	0.0780266 	0.0780266 	-0.148426 	4.02732 	
4.17574 	4.17612 	-0.000375815 	-2.19725 	4.49992e-08 	9.78209 	10.2179 	
4.39672e-12 	19280.2 	1.92802 	3.85603 	0.3 	2.33333 	-0.941678 	1.11111e-05 	
0.000199825 	0.000199825 	-0.000706142 	-23520.3 	0.00785133 	15.0875 	-23535.4 	-23535.4 	0 	
0.000191667 	-1.03289e-08 	0.843947 	0.0780266 	0.0780266 	-0.148426 	4.0273 	
4.17572 	4.17612 	-0.00039377 	-2.30223 	3.30688e-08 	7.53235 	12.4676 	
4.60668e-12 	19280.2 	1.92802 	3.85603 	0.3 	2.33333 	-0.986668 	1.11111e-05 	
0.000199825 	0.000199825 	-0.000739697 	-24624.9 	0.00470461 	22.3953 	-24647.3 	-24647.3 	0 	
0.000202778 	-1.32612e-08 	0.843947 	0.0780266 	0.0780266 	-0.148426 	4.02728 	
4.1757 	4.17612 	-0.000415381 	-2.42858 	2.04837e-08 	5.16695 	14.8331 	
4.85939e-12 	19280.2 	1.92802 	3.85603 	0.3 	2.33333 	-1.04082 	1.11111e-05 	
0.000199825 	0.000199825 	-0.000779971 	-25993.1 	0.00228271 	31.642 	-26024.7 	-26024.7 	0 	
0.000213889 	-1.63685e-08 	0.843947 	0.0780266 	0.0780266 	-0.148426 	4.02725 	
4.17568 	4.17612 	-0.00044085 	-2.57749 	7.15549e-09 	2.66391 	17.3361 	
5.15721e-12 	19280.2 	1.92802 	3.85603 	0.3 	2.33333 	-1.10464 	1.11111e-05 	
0.000199825 	0.000199825 	-0.000827165 	-27553.9 	0.000709587 	43.1715 	-27597.1 	-27597.1 	0 	
0.000225 	0 	0.843947 	0.0780266 	0.0780266 	-0.148426 	4.02722 	
4.17565 	4.17612 	-0.000470412 	-1.37517 	7.15549e-09 	0.687583 	19.3124 	
2.75145e-12 	9640.08 	0.964008 	1.92802 	0.3 	1.16667 	-1.17871 	5.55556e-06 	
9.99124e-05 	9.99124e-05 	-0.000881781 	-29361.5 	0.000153231 	49.5549 	-29411 	-29411 	0 	
ZONE T = "t = 4e-08 [s]" I = 10 SOLUTIONTIME = 4.0000000000000E-08
0.000125 	4.92925e-09 	0.843947 	0.0780266 	0.0780266 	-0.148426 	4.02736 	
4.17578 	4.17612 	-0.000336161 	-0.982701 	9.85546e-08 	19.5086 	0.49135 	
2.94921e-12 	9640.08 	0.964008 	1.92802 	0.3 	1.16667 	-0.842315 	5.55556e-06 	
9.99124e-05 	9.99124e-05 	-0.000842403 	-21048.1 	0.0293045 	0.137957 	-21048.2 	-21048.2 	0 	
0.000136111 	2.54465e-09 	0.843947 	0.0780266 	0.0780266 	-0.148426 	4.02735 	
4.17578 	4.17612 	-0.000337704 	-1.97442 	8.83186e-08 	18.0301 	1.96991 	
5.92548e-12 	19280.2 	1.92802 	3.85603 	0.3 	2.33333 	-0.846181 	1.11111e-05 	
0.000199825 	0.000199825 	-0.000846876 	-21178.4 	0.02642 	0.693591 	-21179.2 	-21179.2 	0 	
0.000147222 	1.27551e-10 	0.843947 	0.0780266 	0.0780266 	-0.148426 	4.02735 	
4.17578 	4.17612 	-0.000342382 	-2.00178 	7.79452e-08 	16.042 	3.95801 	
6.00755e-12 	19280.2 	1.92802 	3.85603 	0.3 	2.33333 	-0.857904 	1.11111e-05 	
0.000199825 	0.000199825 	-0.000858175 	-21411.9 	0.0209334 	2.38109 	-21414.3 	-21414.3 	0 	
0.000158333 	-2.34493e-09 	0.843947 	0.0780266 	0.0780266 	-0.148426 	4.02734 	
4.17577 	4.17612 	-0.00035024 	-2.04772 	6.73338e-08 	14.0172 	5.98276 	
6.14537e-12 	19280.2 	1.92802 	3.85603 	0.3 	2.33333 	-0.877593 	1.11111e-05 	
0.000199825 	0.000199825 	-0.000878482 	-21920.6 	0.0160056 	5.26309 	-21925.8 	-21925.8 	0 	
0.000169444 	-4.89583e-09 	0.843947 	0.0780266 	0.0780266 	-0.148426 	4.02733 	
4.17576 	4.17612 	-0.00036135 	-2.11267 	5.63857e-08 	11.937 	8.06295 	
6.34024e-12 	19280.2 	1.92802 	3.85603 	0.3 	2.33333 	-0.905432 	1.11111e-05 	
0.000199825 	0.000199825 	-0.000905924 	-22667.5 	0.0116364 	9.44672 	-22676.9 	-22676.9 	0 	
0.000180556 	-7.54877e-09 	0.843947 	0.0780266 	0.0780266 	-0.148426 	4.02732 	
4.17574 	4.17612 	-0.000375815 	-2.19725 	4.49994e-08 	9.78209 	10.2179 	
6.59397e-12 	19280.2 	1.92802 	3.85603 	0.3 	2.33333 	-0.941678 	1.11111e-05 	
0.000199825 	0.000199825 	-0.000941351 	-23520.9 	0.00785133 	15.0875 	-23536 	-23536 	0 	
0.000191667 	-1.03285e-08 	0.843947 	0.0780266 	0.0780266 	-0.148426 	4.0273 	
4.17572 	4.17612 	-0.00039377 	-2.30223 	3.3069e-08 	7.53235 	12.4676 	
6.90891e-12 	19280.2 	1.92802 	3.85603 	0.3 	2.33333 	-0.986668 	1.11111e-05 	
0.000199825 	0.000199825 	-0.000986346 	-24664.9 	0.00470461 	22.3953 	-24687.3 	-24687.3 	0 	
0.000202778 	-1.32608e-08 	0.843947 	0.0780266 	0.0780266 	-0.148426 	4.02728 	
4.1757 	4.17612 	-0.000415381 	-2.42858 	2.04839e-08 	5.16695 	14.8331 	
7.28798e-12 	19280.2 	1.92802 	3.85603 	0.3 	2.33333 	-1.04082 	1.11111e-05 	
0.000199825 	0.000199825 	-0.00103993 	-25995.6 	0.00228271 	31.642 	-26027.2 	-26027.2 	0 	
0.000213889 	-1.63662e-08 	0.843947 	0.0780266 	0.0780266 	-0.148426 	4.02725 	
4.17568 	4.17612 	-0.00044085 	-2.57749 	7.17005e-09 	2.66391 	17.3361 	
7.7347e-12 	19280.2 	1.92802 	3.85603 	0.3 	2.33333 	-1.10464 	1.11111e-05 	
0.000199825 	0.000199825 	-0.0011027 	-27553.3 	0.000709587 	43.1715 	-27596.5 	-27596.5 	0 	
0.000225 	0 	0.843947 	0.0780266 	0.0780266 	-0.148426 	4.02722 	
4.17565 	4.17612 	-0.000470412 	-1.37517 	7.17005e-09 	0.687583 	19.3124 	
4.12662e-12 	9640.08 	0.964008 	1.92802 	0.3 	1.16667 	-1.17871 	5.55556e-06 	
9.99124e-05 	9.99124e-05 	-0.0011758 	-29401.4 	0.000153231 	49.5549 	-29451 	-29451 	0 	
ZONE T = "t = 5.5e-08 [s]" I = 10 SOLUTIONTIME = 5.5000000000000E-08
0.000125 	4.92907e-09 	0.843947 	0.0780266 	0.0780266 	-0.148426 	4.02736 	
4.17578 	4.17612 	-0.000336161 	-0.982701 	9.85561e-08 	19.5086 	0.49135 	
3.93191e-12 	9640.08 	0.964008 	1.92802 	0.3 	1.16667 	-0.842315 	5.55556e-06 	
9.99124e-05 	9.99124e-05 	-0.0011584 	-21066.6 	0.0293045 	0.137957 	-21066.8 	-21066.8 	0 	
0.000136111 	2.54417e-09 	0.843947 	0.0780266 	0.0780266 	-0.148426 	4.02735 	
4.17578 	4.17612 	-0.000337704 	-1.97442 	8.83187e-08 	18.0301 	1.96991 	
7.89991e-12 	19280.2 	1.92802 	3.85603 	0.3 	2.33333 	-0.846181 	1.11111e-05 	
0.000199825 	0.000199825 	-0.00116446 	-21172.4 	0.02642 	0.693591 	-21173.1 	-21173.1 	0 	
0.000147222 	1.27194e-10 	0.843947 	0.0780266 	0.0780266 	-0.148426 	4.02735 	
4.17578 	4.17612 	-0.000342382 	-2.00178 	7.79453e-08 	16.042 	3.95801 	
8.00932e-12 	19280.2 	1.92802 	3.85603 	0.3 	2.33333 	-0.857904 	1.11111e-05 	
0.000199825 	0.000199825 	-0.00117983 	-21443.4 	0.0209334 	2.38109 	-21445.8 	-21445.8 	0 	
0.000158333 	-2.34527e-09 	0.843947 	0.0780266 	0.0780266 	-0.148426 	4.02734 	
4.17577 	4.17612 	-0.00035024 	-2.04772 	6.73339e-08 	14.0172 	5.98276 	
8.19309e-12 	19280.2 	1.92802 	3.85603 	0.3 	2.33333 	-0.877593 	1.11111e-05 	
0.000199825 	0.000199825 	-0.00120733 	-21923.5 	0.0160056 	5.26309 	-21928.8 	-21928.8 	0 	
0.000169444 	-4.89618e-09 	0.843947 	0.0780266 	0.0780266 	-0.148426 	4.02733 	
4.17576 	4.17612 	-0.00036135 	-2.11267 	5.63858e-08 	11.937 	8.06295 	
8.45292e-12 	19280.2 	1.92802 	3.85603 	0.3 	2.33333 	-0.905432 	1.11111e-05 	
0.000199825 	0.000199825 	-0.00124531 	-22625.6 	0.0116364 	9.44672 	-22635.1 	-22635.1 	0 	
0.000180556 	-7.54926e-09 	0.843947 	0.0780266 	0.0780266 	-0.148426 	4.02732 	
4.17574 	4.17612 	-0.000375815 	-2.19725 	4.49995e-08 	9.78209 	10.2179 	
8.79122e-12 	19280.2 	1.92802 	3.85603 	0.3 	2.33333 	-0.941678 	1.11111e-05 	
0.000199825 	0.000199825 	-0.00129414 	-23519 	0.00785133 	15.0875 	-23534.1 	-23534.1 	0 	
0.000191667 	-1.03291e-08 	0.843947 	0.0780266 	0.0780266 	-0.148426 	4.0273 	
4.17572 	4.17612 	-0.00039377 	-2.30223 	3.30692e-08 	7.53235 	12.4676 	
9.21113e-12 	19280.2 	1.92802 	3.85603 	0.3 	2.33333 	-0.986668 	1.11111e-05 	
0.000199825 	0.000199825 	-0.00135636 	-24667.6 	0.00470461 	22.3953 	-24690 	-24690 	0 	
0.000202778 	-1.32615e-08 	0.843947 	0.0780266 	0.0780266 	-0.148426 	4.02728 	
4.1757 	4.17612 	-0.000415381 	-2.42858 	2.04842e-08 	5.16695 	14.8331 	
9.71656e-12 	19280.2 	1.92802 	3.85603 	0.3 	2.33333 	-1.04082 	1.11111e-05 	
0.000199825 	0.000199825 	-0.00142958 	-25977.1 	0.00228271 	31.642 	-26008.7 	-26008.7 	0 	
0.000213889 	-1.63647e-08 	0.843947 	0.0780266 	0.0780266 	-0.148426 	4.02725 	
4.17568 	4.17612 	-0.00044085 	-2.57749 	7.1846e-09 	2.66391 	17.3361 	
1.03122e-11 	19280.2 	1.92802 	3.85603 	0.3 	2.33333 	-1.10464 	1.11111e-05 	
0.000199825 	0.000199825 	-0.00151614 	-27562.9 	0.000709587 	43.1715 	-27606.1 	-27606.1 	0 	
0.000225 	0 	0.843947 	0.0780266 	0.0780266 	-0.148426 	4.02722 	
4.17565 	4.17612 	-0.000470412 	-1.37517 	7.1846e-09 	0.687583 	19.3124 	
5.50178e-12 	9640.08 	0.964008 	1.92802 	0.3 	1.16667 	-1.17871 	5.55556e-06 	
9.99124e-05 	9.99124e-05 	-0.0016166 	-29387.1 	0.000153231 	49.5549 	-29436.6 	-29436.6 	0 	
ZONE T = "t = 7.75e-08 [s]" I = 10 SOLUTIONTIME = 7.7500000000000E-08
0.000125 	4.92985e-09 	0.843947 	0.0780266 	0.0780266 	-0.148426 	4.02736 	
4.17578 	4.17612 	-0.000336161 	-0.982701 	9.85584e-08 	19.5086 	0.49135 	
5.40596e-12 	9640.08 	0.964008 	1.92802 	0.3 	1.16667 	-0.842315 	5.55556e-06 	
9.99124e-05 	9.99124e-05 	-0.00163187 	-21042.9 	0.0293045 	0.137957 	-21043 	-21043 	0 	
0.000136111 	2.54454e-09 	0.843947 	0.0780266 	0.0780266 	-0.148426 	4.02735 	
4.17578 	4.17612 	-0.000337704 	-1.97442 	8.83187e-08 	18.0301 	1.96991 	
1.08615e-11 	19280.2 	1.92802 	3.85603 	0.3 	2.33333 	-0.846181 	1.11111e-05 	
0.000199825 	0.000199825 	-0.00164083 	-21172.1 	0.02642 	0.693591 	-21172.8 	-21172.8 	0 	
0.000147222 	1.27536e-10 	0.843947 	0.0780266 	0.0780266 	-0.148426 	4.02735 	
4.17578 	4.17612 	-0.000342382 	-2.00178 	7.79454e-08 	16.042 	3.95801 	
1.1012e-11 	19280.2 	1.92802 	3.85603 	0.3 	2.33333 	-0.857904 	1.11111e-05 	
0.000199825 	0.000199825 	-0.00166261 	-21457.3 	0.0209334 	2.38109 	-21459.7 	-21459.7 	0 	
0.000158333 	-2.3449e-09 	0.843947 	0.0780266 	0.0780266 	-0.148426 	4.02734 	
4.17577 	4.17612 	-0.00035024 	-2.04772 	6.7334e-08 	14.0172 	5.98276 	
1.12647e-11 	19280.2 	1.92802 	3.85603 	0.3 	2.33333 	-0.877593 	1.11111e-05 	
0.000199825 	0.000199825 	-0.00170097 	-21939.2 	0.0160056 	5.26309 	-21944.4 	-21944.4 	0 	
0.000169444 	-4.89578e-09 	0.843947 	0.0780266 	0.0780266 	-0.148426 	4.02733 	
4.17576 	4.17612 	-0.00036135 	-2.11267 	5.6386e-08 	11.937 	8.06295 	
1.16219e-11 	19280.2 	1.92802 	3.85603 	0.3 	2.33333 	-0.905432 	1.11111e-05 	
0.000199825 	0.000199825 	-0.00175464 	-22637.1 	0.0116364 	9.44672 	-22646.6 	-22646.6 	0 	
0.000180556 	-7.54875e-09 	0.843947 	0.0780266 	0.0780266 	-0.148426 	4.02732 	
4.17574 	4.17612 	-0.000375815 	-2.19725 	4.49998e-08 	9.78209 	10.2179 	
1.20871e-11 	19280.2 	1.92802 	3.85603 	0.3 	2.33333 	-0.941678 	1.11111e-05 	
0.000199825 	0.000199825 	-0.00182348 	-23526.2 	0.00785133 	15.0875 	-23541.3 	-23541.3 	0 	
0.000191667 	-1.03285e-08 	0.843947 	0.0780266 	0.0780266 	-0.148426 	4.0273 	
4.17572 	4.17612 	-0.00039377 	-2.30223 	3.30695e-08 	7.53235 	12.4676 	
1.26645e-11 	19280.2 	1.92802 	3.85603 	0.3 	2.33333 	-0.986668 	1.11111e-05 	
0.000199825 	0.000199825 	-0.00191056 	-24631.4 	0.00470461 	22.3953 	-24653.8 	-24653.8 	0 	
0.000202778 	-1.32607e-08 	0.843947 	0.0780266 	0.0780266 	-0.148426 	4.02728 	
4.1757 	4.17612 	-0.000415381 	-2.42858 	2.04846e-08 	5.16695 	14.8331 	
1.33594e-11 	19280.2 	1.92802 	3.85603 	0.3 	2.33333 	-1.04082 	1.11111e-05 	
0.000199825 	0.000199825 	-0.00201426 	-25985.7 	0.00228271 	31.642 	-26017.3 	-26017.3 	0 	
0.000213889 	-1.63602e-08 	0.843947 	0.0780266 	0.0780266 	-0.148426 	4.02725 	
4.17568 	4.17612 	-0.00044085 	-2.57749 	7.20638e-09 	2.66391 	17.3361 	
1.41784e-11 	19280.2 	1.92802 	3.85603 	0.3 	2.33333 	-1.10464 	1.11111e-05 	
0.000199825 	0.000199825 	-0.00213691 	-27589.7 	0.000709587 	43.1715 	-27632.8 	-27632.8 	0 	
0.000225 	0 	0.843947 	0.0780266 	0.0780266 	-0.148426 	4.02722 	
4.17565 	4.17612 	-0.000470412 	-1.37517 	7.20638e-09 	0.687583 	19.3124 	
7.56453e-12 	9640.08 	0.964008 	1.92802 	0.3 	1.16667 	-1.17871 	5.55556e-06 	
9.99124e-05 	9.99124e-05 	-0.00227842 	-29414.1 	0.000153231 	49.5549 	-29463.7 	-29463.7 	0 	
ZONE T = "t = 1.1125e-07 [s]" I = 10 SOLUTIONTIME = 1.1125000000000E-07
0.000125 	4.93048e-09 	0.843947 	0.0780266 	0.0780266 	-0.148426 	4.02736 	
4.17578 	4.17612 	-0.000336161 	-0.982701 	9.85619e-08 	19.5086 	0.49135 	
7.61704e-12 	9640.08 	0.964008 	1.92802 	0.3 	1.16667 	-0.842315 	5.55556e-06 	
9.99124e-05 	9.99124e-05 	-0.00234317 	-21075.5 	0.0293045 	0.137957 	-21075.7 	-21075.7 	0 	
0.000136111 	2.54458e-09 	0.843947 	0.0780266 	0.0780266 	-0.148426 	4.02735 	
4.17578 	4.17612 	-0.000337704 	-1.97442 	8.83188e-08 	18.0301 	1.96991 	
1.5304e-11 	19280.2 	1.92802 	3.85603 	0.3 	2.33333 	-0.846181 	1.11111e-05 	
0.000199825 	0.000199825 	-0.00235542 	-21172.9 	0.02642 	0.693591 	-21173.6 	-21173.6 	0 	
0.000147222 	1.2759e-10 	0.843947 	0.0780266 	0.0780266 	-0.148426 	4.02735 	
4.17578 	4.17612 	-0.000342382 	-2.00178 	7.79456e-08 	16.042 	3.95801 	
1.5516e-11 	19280.2 	1.92802 	3.85603 	0.3 	2.33333 	-0.857904 	1.11111e-05 	
0.000199825 	0.000199825 	-0.00238668 	-21453.7 	0.0209334 	2.38109 	-21456.1 	-21456.1 	0 	
0.000158333 	-2.34489e-09 	0.843947 	0.0780266 	0.0780266 	-0.148426 	4.02734 	
4.17577 	4.17612 	-0.00035024 	-2.04772 	6.73343e-08 	14.0172 	5.98276 	
1.5872e-11 	19280.2 	1.92802 	3.85603 	0.3 	2.33333 	-0.877593 	1.11111e-05 	
0.000199825 	0.000199825 	-0.00244173 	-21948.6 	0.0160056 	5.26309 	-21953.9 	-21953.9 	0 	
0.000169444 	-4.89579e-09 	0.843947 	0.0780266 	0.0780266 	-0.148426 	4.02733 	
4.17576 	4.17612 	-0.00036135 	-2.11267 	5.63863e-08 	11.937 	8.06295 	
1.63754e-11 	19280.2 	1.92802 	3.85603 	0.3 	2.33333 	-0.905432 	1.11111e-05 	
0.000199825 	0.000199825 	-0.00251819 	-22623.5 	0.0116364 	9.44672 	-22633 	-22633 	0 	
0.000180556 	-7.54882e-09 	0.843947 	0.0780266 	0.0780266 	-0.148426 	4.02732 	
4.17574 	4.17612 	-0.000375815 	-2.19725 	4.50002e-08 	9.78209 	10.2179 	
1.70309e-11 	19280.2 	1.92802 	3.85603 	0.3 	2.33333 	-0.941678 	1.11111e-05 	
0.000199825 	0.000199825 	-0.00261751 	-23526.9 	0.00785133 	15.0875 	-23542 	-23542 	0 	
0.000191667 	-1.03286e-08 	0.843947 	0.0780266 	0.0780266 	-0.148426 	4.0273 	
4.17572 	4.17612 	-0.00039377 	-2.30223 	3.307e-08 	7.53235 	12.4676 	
1.78445e-11 	19280.2 	1.92802 	3.85603 	0.3 	2.33333 	-0.986668 	1.11111e-05 	
0.000199825 	0.000199825 	-0.0027423 	-24643.9 	0.00470461 	22.3953 	-24666.3 	-24666.3 	0 	
0.000202778 	-1.32609e-08 	0.843947 	0.0780266 	0.0780266 	-0.148426 	4.02728 	
4.1757 	4.17612 	-0.000415381 	-2.42858 	2.04852e-08 	5.16695 	14.8331 	
1.88237e-11 	19280.2 	1.92802 	3.85603 	0.3 	2.33333 	-1.04082 	1.11111e-05 	
0.000199825 	0.000199825 	-0.00289104 	-25978.6 	0.00228271 	31.642 	-26010.3 	-26010.3 	0 	
0.000213889 	-1.63548e-08 	0.843947 	0.0780266 	0.0780266 	-0.148426 	4.02725 	
4.17568 	4.17612 	-0.00044085 	-2.57749 	7.23895e-09 	2.66391 	17.3361 	
1.99778e-11 	19280.2 	1.92802 	3.85603 	0.3 	2.33333 	-1.10464 	1.11111e-05 	
0.000199825 	0.000199825 	-0.00306705 	-27559.6 	0.000709587 	43.1715 	-27602.8 	-27602.8 	0 	
0.000225 	0 	0.843947 	0.0780266 	0.0780266 	-0.148426 	4.02722 	
4.17565 	4.17612 	-0.000470412 	-1.37517 	7.23895e-09 	0.687583 	19.3124 	
1.06587e-11 	9640.08 	0.964008 	1.92802 	0.3 	1.16667 	-1.17871 	5.55556e-06 	
9.99124e-05 	9.99124e-05 	-0.0032709 	-29406.7 	0.000153231 	49.5549 	-29456.3 	-29456.3 	0 	
ZONE T = "t = 1.61875e-07 [s]" I = 10 SOLUTIONTIME = 1.6187500000000E-07
0.000125 	4.9312e-09 	0.843947 	0.0780266 	0.0780266 	-0.148426 	4.02736 	
4.17578 	4.17612 	-0.000336161 	-0.982701 	9.85673e-08 	19.5086 	0.49135 	
1.09337e-11 	9640.08 	0.964008 	1.92802 	0.3 	1.16667 	-0.842315 	5.55556e-06 	
9.99124e-05 	9.99124e-05 	-0.00340995 	-21072.2 	0.0293045 	0.137957 	-21072.4 	-21072.4 	0 	
0.000136111 	2.54438e-09 	0.843947 	0.0780266 	0.0780266 	-0.148426 	4.02735 	
4.17578 	4.17612 	-0.000337704 	-1.97442 	8.8319e-08 	18.0301 	1.96991 	
2.19677e-11 	19280.2 	1.92802 	3.85603 	0.3 	2.33333 	-0.846181 	1.11111e-05 	
0.000199825 	0.000199825 	-0.00342684 	-21163.8 	0.02642 	0.693591 	-21164.5 	-21164.5 	0 	
0.000147222 	1.27412e-10 	0.843947 	0.0780266 	0.0780266 	-0.148426 	4.02735 	
4.17578 	4.17612 	-0.000342382 	-2.00178 	7.79458e-08 	16.042 	3.95801 	
2.2272e-11 	19280.2 	1.92802 	3.85603 	0.3 	2.33333 	-0.857904 	1.11111e-05 	
0.000199825 	0.000199825 	-0.00347259 	-21450 	0.0209334 	2.38109 	-21452.4 	-21452.4 	0 	
0.000158333 	-2.34501e-09 	0.843947 	0.0780266 	0.0780266 	-0.148426 	4.02734 	
4.17577 	4.17612 	-0.00035024 	-2.04772 	6.73346e-08 	14.0172 	5.98276 	
2.27831e-11 	19280.2 	1.92802 	3.85603 	0.3 	2.33333 	-0.877593 	1.11111e-05 	
0.000199825 	0.000199825 	-0.00355268 	-21944.6 	0.0160056 	5.26309 	-21949.9 	-21949.9 	0 	
0.000169444 	-4.89585e-09 	0.843947 	0.0780266 	0.0780266 	-0.148426 	4.02733 	
4.17576 	4.17612 	-0.00036135 	-2.11267 	5.63868e-08 	11.937 	8.06295 	
2.35057e-11 	19280.2 	1.92802 	3.85603 	0.3 	2.33333 	-0.905432 	1.11111e-05 	
0.000199825 	0.000199825 	-0.00366308 	-22615.1 	0.0116364 	9.44672 	-22624.5 	-22624.5 	0 	
0.000180556 	-7.54881e-09 	0.843947 	0.0780266 	0.0780266 	-0.148426 	4.02732 	
4.17574 	4.17612 	-0.000375815 	-2.19725 	4.50007e-08 	9.78209 	10.2179 	
2.44466e-11 	19280.2 	1.92802 	3.85603 	0.3 	2.33333 	-0.941678 	1.11111e-05 	
0.000199825 	0.000199825 	-0.00380893 	-23534.3 	0.00785133 	15.0875 	-23549.4 	-23549.4 	0 	
0.000191667 	-1.03285e-08 	0.843947 	0.0780266 	0.0780266 	-0.148426 	4.0273 	
4.17572 	4.17612 	-0.00039377 	-2.30223 	3.30707e-08 	7.53235 	12.4676 	
2.56145e-11 	19280.2 	1.92802 	3.85603 	0.3 	2.33333 	-0.986668 	1.11111e-05 	
0.000199825 	0.000199825 	-0.00399008 	-24647.5 	0.00470461 	22.3953 	-24669.9 	-24669.9 	0 	
0.000202778 	-1.32607e-08 	0.843947 	0.0780266 	0.0780266 	-0.148426 	4.02728 	
4.1757 	4.17612 	-0.000415381 	-2.42858 	2.04863e-08 	5.16695 	14.8331 	
2.70202e-11 	19280.2 	1.92802 	3.85603 	0.3 	2.33333 	-1.04082 	1.11111e-05 	
0.000199825 	0.000199825 	-0.00420672 	-25988.7 	0.00228271 	31.642 	-26020.3 	-26020.3 	0 	
0.000213889 	-1.63465e-08 	0.843947 	0.0780266 	0.0780266 	-0.148426 	4.02725 	
4.17568 	4.17612 	-0.00044085 	-2.57749 	7.28759e-09 	2.66391 	17.3361 	
2.86768e-11 	19280.2 	1.92802 	3.85603 	0.3 	2.33333 	-1.10464 	1.11111e-05 	
0.000199825 	0.000199825 	-0.00446185 	-27551.6 	0.000709587 	43.1715 	-27594.8 	-27594.8 	0 	
0.000225 	0 	0.843947 	0.0780266 	0.0780266 	-0.148426 	4.02722 	
4.17565 	4.17612 	-0.000470412 	-1.37517 	7.28759e-09 	0.687583 	19.3124 	
1.52998e-11 	9640.08 	0.964008 	1.92802 	0.3 	1.16667 	-1.17871 	5.55556e-06 	
9.99124e-05 	9.99124e-05 	-0.00475922 	-29399 	0.000153231 	49.5549 	-29448.6 	-29448.6 	0 	
ZONE T = "t = 2.37813e-07 [s]" I = 10 SOLUTIONTIME = 2.3781250000000E-07
0.000125 	4.93286e-09 	0.843947 	0.0780266 	0.0780266 	-0.148426 	4.02736 	
4.17578 	4.17612 	-0.000336161 	-0.982701 	9.85757e-08 	19.5086 	0.49135 	
1.59086e-11 	9640.08 	0.964008 	1.92802 	0.3 	1.16667 	-0.842315 	5.55556e-06 	
9.99124e-05 	9.99124e-05 	-0.0050103 	-21074.6 	0.0293045 	0.137957 	-21074.8 	-21074.8 	0 	
0.000136111 	2.54457e-09 	0.843947 	0.0780266 	0.0780266 	-0.148426 	4.02735 	
4.17578 	4.17612 	-0.000337704 	-1.97442 	8.83193e-08 	18.0301 	1.96991 	
3.19632e-11 	19280.2 	1.92802 	3.85603 	0.3 	2.33333 	-0.846181 	1.11111e-05 	
0.000199825 	0.000199825 	-0.00503438 	-21169.3 	0.02642 	0.693591 	-21170 	-21170 	0 	
0.000147222 	1.27592e-10 	0.843947 	0.0780266 	0.0780266 	-0.148426 	4.02735 	
4.17578 	4.17612 	-0.000342382 	-2.00178 	7.79462e-08 	16.042 	3.95801 	