TITLE = "Solution on Domain BulkDomain1D_0"
VARIABLES = "x [m]"  
"Vel_axial(0)" 	"MF_sp(ECDMC)" 	"MF_sp(Li+)" 	"MF_sp(PF6-)" 	"Volt(Electroly)" 	"Volt(AnodeVolt)" 	
"Potential Drop Electrode-Electrolyte [V]" 	"Surf_0 Equilibrium Potential Drop Electrode-Electrolyte [V]" 	"Overpotential_0 [V]" 	"Current Source [A/m^2]" 	"Li+ flux [kmol/m^2/s]" 	"Electrolyte Current [A/m^2]" 	"Electrode Current [A/m^2]" 	
"Capacity discharged [A-s]" 	"Depth of discharge [-]" 	"Capacity remaining [A-s]" 	"Initial capacity [A-s]" 	"Porosity []" 	"Surface Area [m2/m2] (area per area)" 	"Specific current (per particle area) [A/m^2]" 	"Control volume thickness [m]" 	
"Moles Li_C6-bulk [mol/m^2] (per electrode area)" 	"Moles V_C6-bulk [mol/m^2] (per electrode area)" 	"qHeat_accum [J/m3]" 	"qHeat_step [W/m3]" 	"Joule_Lyte [W/m3]" 	"Joule_Solid [W/m3]" 	"electrodHeat [W/m3]" 	"OverpotHeat [W/m3]" 	"deltaSHeat [W/m3]" 	

ZONE T = "t = 0 [s]" I = 10 SOLUTIONTIME = 0.0000000000000E+00
0 	0 	0.843947 	0.0780266 	0.0780266 	-0.07 	0 	
0 	0 	0 	0 	0 	0 	-0.718561 	
0 	0 	0 	0 	0.3 	0.933333 	-1.53977 	5.55556e-06 	
6.79932e-05 	4.53288e-05 	0 	0.0 	 0.0 	 0.0 	 0.0 	 0.0 	 0.0 	 
1.11111e-05 	0 	0.843947 	0.0780266 	0.0780266 	-0.07 	0 	
0 	0 	0 	0 	0 	0 	-0 	
0 	0 	0 	0 	0.3 	1.86667 	-1.53977 	1.11111e-05 	
0.000135986 	9.06576e-05 	0 	0.0 	 0.0 	 0.0 	 0.0 	 0.0 	 0.0 	 
2.22222e-05 	0 	0.843947 	0.0780266 	0.0780266 	-0.07 	0 	
0 	0 	0 	0 	0 	0 	-0 	
0 	0 	0 	0 	0.3 	1.86667 	-1.53977 	1.11111e-05 	
0.000135986 	9.06576e-05 	0 	0.0 	 0.0 	 0.0 	 0.0 	 0.0 	 0.0 	 
3.33333e-05 	0 	0.843947 	0.0780266 	0.0780266 	-0.07 	0 	
0 	0 	0 	0 	0 	0 	-0 	
0 	0 	0 	0 	0.3 	1.86667 	-1.53977 	1.11111e-05 	
0.000135986 	9.06576e-05 	0 	0.0 	 0.0 	 0.0 	 0.0 	 0.0 	 0.0 	 
4.44444e-05 	0 	0.843947 	0.0780266 	0.0780266 	-0.07 	0 	
0 	0 	0 	0 	0 	0 	-0 	
0 	0 	0 	0 	0.3 	1.86667 	-1.53977 	1.11111e-05 	
0.000135986 	9.06576e-05 	0 	0.0 	 0.0 	 0.0 	 0.0 	 0.0 	 0.0 	 
5.55556e-05 	0 	0.843947 	0.0780266 	0.0780266 	-0.07 	0 	
0 	0 	0 	0 	0 	0 	-0 	
0 	0 	0 	0 	0.3 	1.86667 	-1.53977 	1.11111e-05 	
0.000135986 	9.06576e-05 	0 	0.0 	 0.0 	 0.0 	 0.0 	 0.0 	 0.0 	 
6.66667e-05 	0 	0.843947 	0.0780266 	0.0780266 	-0.07 	0 	
0 	0 	0 	0 	0 	0 	-0 	
0 	0 	0 	0 	0.3 	1.86667 	-1.53977 	1.11111e-05 	
0.000135986 	9.06576e-05 	0 	0.0 	 0.0 	 0.0 	 0.0 	 0.0 	 0.0 	 
7.77778e-05 	0 	0.843947 	0.0780266 	0.0780266 	-0.07 	0 	
0 	0 	0 	0 	0 	0 	-0 	
0 	0 	0 	0 	0.3 	1.86667 	-1.53977 	1.11111e-05 	
0.000135986 	9.06576e-05 	0 	0.0 	 0.0 	 0.0 	 0.0 	 0.0 	 0.0 	 
8.88889e-05 	0 	0.843947 	0.0780266 	0.0780266 	-0.07 	0 	
0 	0 	0 	0 	0 	0 	-0 	
0 	0 	0 	0 	0.3 	1.86667 	-1.53977 	1.11111e-05 	
0.000135986 	9.06576e-05 	0 	0.0 	 0.0 	 0.0 	 0.0 	 0.0 	 0.0 	 
0.0001 	0 	0.843947 	0.0780266 	0.0780266 	-0.07 	0 	
0 	0 	0 	0 	0 	-0.718561 	0 	
0 	0 	0 	0 	0.3 	0.933333 	-1.53977 	5.55556e-06 	
6.79932e-05 	4.53288e-05 	0 	0.0 	 0.0 	 0.0 	 0.0 	 0.0 	 0.0 	 
ZONE T = "t = 1e-08 [s]" I = 10 SOLUTIONTIME = 1.0000000000000E-08
0 	3.39904e-10 	0.843947 	0.0780266 	0.0780266 	-0.148426 	0 	
0.07 	0.113444 	-0.0434441 	-1.43712 	-0 	0.555728 	19.4443 	
0 	4373.57 	0.656035 	1.09339 	0.3 	0.933333 	1.19085 	5.55556e-06 	
6.79932e-05 	4.53288e-05 	0.000266846 	26684.6 	0.000100097 	5.09682 	26679.5 	26679.5 	0 	
1.11111e-05 	1.01964e-09 	0.843947 	0.0780266 	0.0780266 	-0.148426 	-2.99818e-06 	
0.07 	0.113444 	-0.0434441 	-2.87424 	-0 	2.2228 	17.7772 	
0 	8747.13 	1.31207 	2.18678 	0.3 	1.86667 	1.19073 	1.11111e-05 	
0.000135986 	9.06576e-05 	0.00026661 	26661 	0.000500427 	4.53234 	26656.5 	26656.5 	0 	
2.22222e-05 	1.69922e-09 	0.843947 	0.0780266 	0.0780266 	-0.148426 	-5.64355e-06 	
0.07 	0.113444 	-0.0434441 	-2.87424 	-0 	4.4454 	15.5546 	
0 	8747.13 	1.31207 	2.18678 	0.3 	1.86667 	1.19063 	1.11111e-05 	
0.000135986 	9.06576e-05 	0.000266383 	26638.3 	0.00170131 	3.47401 	26634.8 	26634.8 	0 	
3.33333e-05 	2.37873e-09 	0.843947 	0.0780266 	0.0780266 	-0.148426 	-7.93615e-06 	
0.07 	0.113444 	-0.0434441 	-2.87424 	-0 	6.66782 	13.3322 	
0 	8747.13 	1.31207 	2.18678 	0.3 	1.86667 	1.19054 	1.11111e-05 	
0.000135986 	9.06576e-05 	0.000266306 	26630.6 	0.00370255 	2.55688 	26628 	26628 	0 	
4.44444e-05 	3.05827e-09 	0.843947 	0.0780266 	0.0780266 	-0.148426 	-9.87599e-06 	
0.07 	0.113444 	-0.0434441 	-2.87424 	-0 	8.89009 	11.1099 	
0 	8747.13 	1.31207 	2.18678 	0.3 	1.86667 	1.19046 	1.11111e-05 	
0.000135986 	9.06576e-05 	0.000266412 	26641.2 	0.00650399 	1.78092 	26639.4 	26639.4 	0 	
5.55556e-05 	3.73762e-09 	0.843947 	0.0780266 	0.0780266 	-0.148426 	-1.14631e-05 	
0.07 	0.113444 	-0.0434441 	-2.87424 	-0 	11.1122 	8.88778 	
0 	8747.13 	1.31207 	2.18678 	0.3 	1.86667 	1.1904 	1.11111e-05 	
0.000135986 	9.06576e-05 	0.00026627 	26627 	0.0101055 	1.1461 	26625.8 	26625.8 	0 	
6.66667e-05 	4.41694e-09 	0.843947 	0.0780266 	0.0780266 	-0.148426 	-1.26975e-05 	
0.07 	0.113444 	-0.0434441 	-2.87424 	-0 	13.3343 	6.66575 	
0 	8747.13 	1.31207 	2.18678 	0.3 	1.86667 	1.19035 	1.11111e-05 	
0.000135986 	9.06576e-05 	0.000266536 	26653.6 	0.014507 	0.652378 	26653 	26653 	0 	
7.77778e-05 	5.09627e-09 	0.843947 	0.0780266 	0.0780266 	-0.148426 	-1.35792e-05 	
0.07 	0.113444 	-0.0434441 	-2.87424 	-0 	15.5562 	4.44379 	
0 	8747.13 	1.31207 	2.18678 	0.3 	1.86667 	1.19032 	1.11111e-05 	
0.000135986 	9.06576e-05 	0.000266503 	26650.3 	0.0197085 	0.299736 	26650 	26650 	0 	
8.88889e-05 	5.77583e-09 	0.843947 	0.0780266 	0.0780266 	-0.148426 	-1.41082e-05 	
0.07 	0.113444 	-0.0434441 	-2.87424 	-0 	17.7781 	2.22188 	
0 	8747.13 	1.31207 	2.18678 	0.3 	1.86667 	1.1903 	1.11111e-05 	
0.000135986 	9.06576e-05 	0.000266469 	26646.9 	0.0257099 	0.0881565 	26646.8 	26646.8 	0 	
0.0001 	6.12169e-09 	0.843947 	0.0780266 	0.0780266 	-0.148426 	-1.42846e-05 	
0.07 	0.113444 	-0.0434441 	-1.43712 	-0 	19.4445 	0.555469 	
0 	4373.57 	0.656035 	1.09339 	0.3 	0.933333 	1.19029 	5.55556e-06 	
6.79932e-05 	4.53288e-05 	0.000266424 	26642.4 	0.0289106 	0.0176312 	26642.4 	26642.4 	0 	
ZONE T = "t = 2e-08 [s]" I = 10 SOLUTIONTIME = 2.0000000000000E-08
0 	3.39771e-10 	0.843947 	0.0780266 	0.0780266 	-0.148426 	0 	
0.148426 	0.113444 	0.0349821 	1.11146 	5.75972e-09 	0.555728 	19.4443 	
1.11146e-12 	4373.57 	0.656035 	1.09339 	0.3 	0.933333 	1.19085 	5.55556e-06 	
6.79932e-05 	4.53288e-05 	0.000533598 	26675.2 	0.000200194 	10.1936 	26670.1 	26670.1 	0 	
1.11111e-05 	1.01935e-09 	0.843947 	0.0780266 	0.0780266 	-0.148426 	-2.99818e-06 	
0.148423 	0.113444 	0.0349791 	2.22269 	1.7278e-08 	2.2228 	17.7772 	
2.22269e-12 	8747.13 	1.31207 	2.18678 	0.3 	1.86667 	1.19073 	1.11111e-05 	
0.000135986 	9.06576e-05 	0.000533349 	26673.8 	0.00100085 	9.06468 	26669.3 	26669.3 	0 	
2.22222e-05 	1.69888e-09 	0.843947 	0.0780266 	0.0780266 	-0.148426 	-5.64355e-06 	
0.148421 	0.113444 	0.0349765 	2.2225 	2.87953e-08 	4.4454 	15.5546 	
2.2225e-12 	8747.13 	1.31207 	2.18678 	0.3 	1.86667 	1.19063 	1.11111e-05 	
0.000135986 	9.06576e-05 	0.000532943 	26656.1 	0.00340262 	6.94801 	26652.6 	26652.6 	0 	
3.33333e-05 	2.37849e-09 	0.843947 	0.0780266 	0.0780266 	-0.148426 	-7.93615e-06 	
0.148418 	0.113444 	0.0349742 	2.22233 	4.03118e-08 	6.66782 	13.3322 	
2.22233e-12 	8747.13 	1.31207 	2.18678 	0.3 	1.86667 	1.19054 	1.11111e-05 	
0.000135986 	9.06576e-05 	0.000532784 	26647.8 	0.00740509 	5.11376 	26645.2 	26645.2 	0 	
4.44444e-05 	3.05792e-09 	0.843947 	0.0780266 	0.0780266 	-0.148426 	-9.87599e-06 	
0.148416 	0.113444 	0.0349723 	2.22219 	5.18275e-08 	8.89009 	11.1099 	
2.22219e-12 	8747.13 	1.31207 	2.18678 	0.3 	1.86667 	1.19046 	1.11111e-05 	
0.000135986 	9.06576e-05 	0.000533003 	26659.1 	0.013008 	3.56185 	26657.4 	26657.4 	0 	
5.55556e-05 	3.73743e-09 	0.843947 	0.0780266 	0.0780266 	-0.148426 	-1.14631e-05 	
0.148415 	0.113444 	0.0349707 	2.22208 	6.33426e-08 	11.1122 	8.88778 	
2.22208e-12 	8747.13 	1.31207 	2.18678 	0.3 	1.86667 	1.1904 	1.11111e-05 	
0.000135986 	9.06576e-05 	0.000532747 	26647.7 	0.020211 	2.2922 	26646.6 	26646.6 	0 	
6.66667e-05 	4.4168e-09 	0.843947 	0.0780266 	0.0780266 	-0.148426 	-1.26975e-05 	
0.148414 	0.113444 	0.0349695 	2.22199 	7.48572e-08 	13.3343 	6.66575 	
2.22199e-12 	8747.13 	1.31207 	2.18678 	0.3 	1.86667 	1.19035 	1.11111e-05 	
0.000135986 	9.06576e-05 	0.000533036 	26650 	0.029014 	1.30476 	26649.4 	26649.4 	0 	
7.77778e-05 	5.09624e-09 	0.843947 	0.0780266 	0.0780266 	-0.148426 	-1.35792e-05 	
0.148413 	0.113444 	0.0349686 	2.22193 	8.63715e-08 	15.5562 	4.44379 	
2.22193e-12 	8747.13 	1.31207 	2.18678 	0.3 	1.86667 	1.19032 	1.11111e-05 	
0.000135986 	9.06576e-05 	0.000532893 	26639 	0.039417 	0.599471 	26638.7 	26638.7 	0 	
8.88889e-05 	5.77595e-09 	0.843947 	0.0780266 	0.0780266 	-0.148426 	-1.41082e-05 	
0.148412 	0.113444 	0.0349681 	2.22189 	9.78876e-08 	17.7781 	2.22188 	
2.22189e-12 	8747.13 	1.31207 	2.18678 	0.3 	1.86667 	1.1903 	1.11111e-05 	
0.000135986 	9.06576e-05 	0.000533005 	26653.6 	0.0514198 	0.176313 	26653.5 	26653.5 	0 	
0.0001 	6.12781e-09 	0.843947 	0.0780266 	0.0780266 	-0.148426 	-1.42846e-05 	
0.148412 	0.113444 	0.0349679 	1.11094 	9.78876e-08 	19.4445 	0.555469 	
1.11094e-12 	4373.57 	0.656035 	1.09339 	0.3 	0.933333 	1.19029 	5.55556e-06 	
6.79932e-05 	4.53288e-05 	0.00053285 	26642.6 	0.0578212 	0.0352624 	26642.5 	26642.5 	0 	
ZONE T = "t = 3e-08 [s]" I = 10 SOLUTIONTIME = 3.0000000000000E-08
0 	3.39849e-10 	0.843947 	0.0780266 	0.0780266 	-0.148426 	0 	
0.148426 	0.113444 	0.0349821 	1.11146 	5.75972e-09 	0.555728 	19.4443 	
2.22291e-12 	4373.57 	0.656035 	1.09339 	0.3 	0.933333 	1.19085 	5.55556e-06 	
6.79932e-05 	4.53288e-05 	0.00080023 	26663.2 	0.000300291 	15.2904 	26658.1 	26658.1 	0 	
1.11111e-05 	1.01932e-09 	0.843947 	0.0780266 	0.0780266 	-0.148426 	-2.99818e-06 	
0.148423 	0.113444 	0.0349791 	2.22269 	1.7278e-08 	2.2228 	17.7772 	
4.44539e-12 	8747.13 	1.31207 	2.18678 	0.3 	1.86667 	1.19073 	1.11111e-05 	
0.000135986 	9.06576e-05 	0.00079993 	26658.1 	0.00150128 	13.597 	26653.5 	26653.5 	0 	
2.22222e-05 	1.6988e-09 	0.843947 	0.0780266 	0.0780266 	-0.148426 	-5.64355e-06 	
0.148421 	0.113444 	0.0349765 	2.2225 	2.87953e-08 	4.4454 	15.5546 	
4.445e-12 	8747.13 	1.31207 	2.18678 	0.3 	1.86667 	1.19063 	1.11111e-05 	
0.000135986 	9.06576e-05 	0.000799335 	26639.2 	0.00510392 	10.422 	26635.7 	26635.7 	0 	
3.33333e-05 	2.37814e-09 	0.843947 	0.0780266 	0.0780266 	-0.148426 	-7.93615e-06 	
0.148418 	0.113444 	0.0349742 	2.22233 	4.03118e-08 	6.66782 	13.3322 	
4.44467e-12 	8747.13 	1.31207 	2.18678 	0.3 	1.86667 	1.19054 	1.11111e-05 	
0.000135986 	9.06576e-05 	0.000799239 	26645.6 	0.0111076 	7.67064 	26643 	26643 	0 	
4.44444e-05 	3.05764e-09 	0.843947 	0.0780266 	0.0780266 	-0.148426 	-9.87599e-06 	
0.148416 	0.113444 	0.0349723 	2.22219 	5.18275e-08 	8.89009 	11.1099 	
4.44439e-12 	8747.13 	1.31207 	2.18678 	0.3 	1.86667 	1.19046 	1.11111e-05 	
0.000135986 	9.06576e-05 	0.000799424 	26642.1 	0.019512 	5.34277 	26640.3 	26640.3 	0 	
5.55556e-05 	3.73698e-09 	0.843947 	0.0780266 	0.0780266 	-0.148426 	-1.14631e-05 	
0.148415 	0.113444 	0.0349707 	2.22208 	6.33426e-08 	11.1122 	8.88778 	
4.44416e-12 	8747.13 	1.31207 	2.18678 	0.3 	1.86667 	1.1904 	1.11111e-05 	
0.000135986 	9.06576e-05 	0.000799259 	26651.2 	0.0303165 	3.4383 	26650 	26650 	0 	
6.66667e-05 	4.41641e-09 	0.843947 	0.0780266 	0.0780266 	-0.148426 	-1.26975e-05 	
0.148414 	0.113444 	0.0349695 	2.22199 	7.48572e-08 	13.3343 	6.66575 	
4.44398e-12 	8747.13 	1.31207 	2.18678 	0.3 	1.86667 	1.19035 	1.11111e-05 	
0.000135986 	9.06576e-05 	0.000799568 	26653.2 	0.0435211 	1.95713 	26652.5 	26652.5 	0 	
7.77778e-05 	5.09558e-09 	0.843947 	0.0780266 	0.0780266 	-0.148426 	-1.35792e-05 	
0.148413 	0.113444 	0.0349686 	2.22193 	8.63715e-08 	15.5562 	4.44379 	
4.44385e-12 	8747.13 	1.31207 	2.18678 	0.3 	1.86667 	1.19032 	1.11111e-05 	
0.000135986 	9.06576e-05 	0.000799183 	26629 	0.0591255 	0.899207 	26628.7 	26628.7 	0 	
8.88889e-05 	5.77572e-09 	0.843947 	0.0780266 	0.0780266 	-0.148426 	-1.41082e-05 	
0.148412 	0.113444 	0.0349681 	2.22189 	9.78897e-08 	17.7781 	2.22188 	
4.44378e-12 	8747.13 	1.31207 	2.18678 	0.3 	1.86667 	1.1903 	1.11111e-05 	
0.000135986 	9.06576e-05 	0.000799417 	26641.1 	0.0771297 	0.26447 	26641 	26641 	0 	
0.0001 	6.13358e-09 	0.843947 	0.0780266 	0.0780266 	-0.148426 	-1.42846e-05 	
0.148412 	0.113444 	0.0349679 	1.11094 	9.78897e-08 	19.4445 	0.555469 	
2.22188e-12 	4373.57 	0.656035 	1.09339 	0.3 	0.933333 	1.19029 	5.55556e-06 	
6.79932e-05 	4.53288e-05 	0.000799248 	26639.8 	0.0867318 	0.0528936 	26639.7 	26639.7 	0 	
ZONE T = "t = 4e-08 [s]" I = 10 SOLUTIONTIME = 4.0000000000000E-08
0 	3.39774e-10 	0.843947 	0.0780266 	0.0780266 	-0.148426 	0 	
0.148426 	0.113444 	0.0349821 	1.11146 	5.75972e-09 	0.555728 	19.4443 	
3.33437e-12 	4373.57 	0.656035 	1.09339 	0.3 	0.933333 	1.19085 	5.55556e-06 	
6.79932e-05 	4.53288e-05 	0.001067 	26677.4 	0.000400389 	20.3873 	26672.3 	26672.3 	0 	
1.11111e-05 	1.01941e-09 	0.843947 	0.0780266 	0.0780266 	-0.148426 	-2.99818e-06 	
0.148423 	0.113444 	0.0349791 	2.22269 	1.7278e-08 	2.2228 	17.7772 	
6.66808e-12 	8747.13 	1.31207 	2.18678 	0.3 	1.86667 	1.19073 	1.11111e-05 	
0.000135986 	9.06576e-05 	0.00106652 	26659.5 	0.00200171 	18.1294 	26655 	26655 	0 	
2.22222e-05 	1.69899e-09 	0.843947 	0.0780266 	0.0780266 	-0.148426 	-5.64355e-06 	
0.148421 	0.113444 	0.0349765 	2.2225 	2.87953e-08 	4.4454 	15.5546 	
6.66751e-12 	8747.13 	1.31207 	2.18678 	0.3 	1.86667 	1.19063 	1.11111e-05 	
0.000135986 	9.06576e-05 	0.00106607 	26673.5 	0.00680523 	13.896 	26670.1 	26670.1 	0 	
3.33333e-05 	2.37849e-09 	0.843947 	0.0780266 	0.0780266 	-0.148426 	-7.93615e-06 	
0.148418 	0.113444 	0.0349742 	2.22233 	4.03118e-08 	6.66782 	13.3322 	
6.667e-12 	8747.13 	1.31207 	2.18678 	0.3 	1.86667 	1.19054 	1.11111e-05 	
0.000135986 	9.06576e-05 	0.0010657 	26646.2 	0.0148102 	10.2275 	26643.6 	26643.6 	0 	
4.44444e-05 	3.05793e-09 	0.843947 	0.0780266 	0.0780266 	-0.148426 	-9.87599e-06 	
0.148416 	0.113444 	0.0349723 	2.22219 	5.18275e-08 	8.89009 	11.1099 	
6.66658e-12 	8747.13 	1.31207 	2.18678 	0.3 	1.86667 	1.19046 	1.11111e-05 	
0.000135986 	9.06576e-05 	0.00106603 	26660.7 	0.0260159 	7.1237 	26658.9 	26658.9 	0 	
5.55556e-05 	3.73738e-09 	0.843947 	0.0780266 	0.0780266 	-0.148426 	-1.14631e-05 	
0.148415 	0.113444 	0.0349707 	2.22208 	6.33426e-08 	11.1122 	8.88778 	
6.66623e-12 	8747.13 	1.31207 	2.18678 	0.3 	1.86667 	1.1904 	1.11111e-05 	
0.000135986 	9.06576e-05 	0.00106593 	26666.9 	0.040422 	4.5844 	26665.8 	26665.8 	0 	
6.66667e-05 	4.41676e-09 	0.843947 	0.0780266 	0.0780266 	-0.148426 	-1.26975e-05 	
0.148414 	0.113444 	0.0349695 	2.22199 	7.48572e-08 	13.3343 	6.66575 	
6.66597e-12 	8747.13 	1.31207 	2.18678 	0.3 	1.86667 	1.19035 	1.11111e-05 	
0.000135986 	9.06576e-05 	0.00106597 	26640.2 	0.0580281 	2.60951 	26639.5 	26639.5 	0 	
7.77778e-05 	5.09614e-09 	0.843947 	0.0780266 	0.0780266 	-0.148426 	-1.35792e-05 	
0.148413 	0.113444 	0.0349686 	2.22193 	8.63715e-08 	15.5562 	4.44379 	
6.66578e-12 	8747.13 	1.31207 	2.18678 	0.3 	1.86667 	1.19032 	1.11111e-05 	
0.000135986 	9.06576e-05 	0.00106541 	26622.9 	0.078834 	1.19894 	26622.6 	26622.6 	0 	
8.88889e-05 	5.77639e-09 	0.843947 	0.0780266 	0.0780266 	-0.148426 	-1.41082e-05 	
0.148412 	0.113444 	0.0349681 	2.22189 	9.78917e-08 	17.7781 	2.22188 	
6.66566e-12 	8747.13 	1.31207 	2.18678 	0.3 	1.86667 	1.1903 	1.11111e-05 	
0.000135986 	9.06576e-05 	0.00106573 	26631.1 	0.10284 	0.352626 	26631 	26631 	0 	
0.0001 	6.1399e-09 	0.843947 	0.0780266 	0.0780266 	-0.148426 	-1.42846e-05 	
0.148412 	0.113444 	0.0349679 	1.11094 	9.78917e-08 	19.4445 	0.555469 	
3.33281e-12 	4373.57 	0.656035 	1.09339 	0.3 	0.933333 	1.19029 	5.55556e-06 	
6.79932e-05 	4.53288e-05 	0.00106546 	26620.7 	0.115642 	0.0705248 	26620.7 	26620.7 	0 	
ZONE T = "t = 5.5e-08 [s]" I = 10 SOLUTIONTIME = 5.5000000000000E-08
0 	3.39816e-10 	0.843947 	0.0780266 	0.0780266 	-0.148426 	0 	
0.148426 	0.113444 	0.0349821 	1.11146 	5.75972e-09 	0.555728 	19.4443 	
4.44583e-12 	4373.57 	0.656035 	1.09339 	0.3 	0.933333 	1.19085 	5.55556e-06 	
6.79932e-05 	4.53288e-05 	0.00146712 	26674.1 	0.000367023 	18.6883 	26669 	26669 	0 	
1.11111e-05 	1.01934e-09 	0.843947 	0.0780266 	0.0780266 	-0.148426 	-2.99818e-06 	
0.148423 	0.113444 	0.0349791 	2.22269 	1.7278e-08 	2.2228 	17.7772 	
8.89078e-12 	8747.13 	1.31207 	2.18678 	0.3 	1.86667 	1.19073 	1.11111e-05 	
0.000135986 	9.06576e-05 	0.00146623 	26647.2 	0.0018349 	16.6186 	26642.7 	26642.7 	0 	
2.22222e-05 	1.69885e-09 	0.843947 	0.0780266 	0.0780266 	-0.148426 	-5.64355e-06 	
0.148421 	0.113444 	0.0349765 	2.2225 	2.87953e-08 	4.4454 	15.5546 	
8.89001e-12 	8747.13 	1.31207 	2.18678 	0.3 	1.86667 	1.19063 	1.11111e-05 	
0.000135986 	9.06576e-05 	0.00146598 	26660.5 	0.00623813 	12.738 	26657 	26657 	0 	
3.33333e-05 	2.37837e-09 	0.843947 	0.0780266 	0.0780266 	-0.148426 	-7.93615e-06 	
0.148418 	0.113444 	0.0349742 	2.22233 	4.03118e-08 	6.66782 	13.3322 	
8.88934e-12 	8747.13 	1.31207 	2.18678 	0.3 	1.86667 	1.19054 	1.11111e-05 	
0.000135986 	9.06576e-05 	0.00146556 	26656.9 	0.013576 	9.37523 	26654.4 	26654.4 	0 	
4.44444e-05 	3.05781e-09 	0.843947 	0.0780266 	0.0780266 	-0.148426 	-9.87599e-06 	
0.148416 	0.113444 	0.0349723 	2.22219 	5.18275e-08 	8.89009 	11.1099 	
8.88877e-12 	8747.13 	1.31207 	2.18678 	0.3 	1.86667 	1.19046 	1.11111e-05 	
0.000135986 	9.06576e-05 	0.00146577 	26649.4 	0.0238479 	6.53006 	26647.6 	26647.6 	0 	
5.55556e-05 	3.73716e-09 	0.843947 	0.0780266 	0.0780266 	-0.148426 	-1.14631e-05 	
0.148415 	0.113444 	0.0349707 	2.22208 	6.33426e-08 	11.1122 	8.88778 	
8.88831e-12 	8747.13 	1.31207 	2.18678 	0.3 	1.86667 	1.1904 	1.11111e-05 	
0.000135986 	9.06576e-05 	0.00146572 	26652.9 	0.0370535 	4.20237 	26651.7 	26651.7 	0 	
6.66667e-05 	4.4165e-09 	0.843947 	0.0780266 	0.0780266 	-0.148426 	-1.26975e-05 	
0.148414 	0.113444 	0.0349695 	2.22199 	7.48572e-08 	13.3343 	6.66575 	
8.88796e-12 	8747.13 	1.31207 	2.18678 	0.3 	1.86667 	1.19035 	1.11111e-05 	
0.000135986 	9.06576e-05 	0.00146584 	26658.1 	0.0531924 	2.39205 	26657.5 	26657.5 	0 	
7.77778e-05 	5.09597e-09 	0.843947 	0.0780266 	0.0780266 	-0.148426 	-1.35792e-05 	
0.148413 	0.113444 	0.0349686 	2.22193 	8.63715e-08 	15.5562 	4.44379 	
8.8877e-12 	8747.13 	1.31207 	2.18678 	0.3 	1.86667 	1.19032 	1.11111e-05 	
0.000135986 	9.06576e-05 	0.00146501 	26639.8 	0.0722645 	1.09903 	26639.4 	26639.4 	0 	
8.88889e-05 	5.77657e-09 	0.843947 	0.0780266 	0.0780266 	-0.148426 	-1.41082e-05 	
0.148412 	0.113444 	0.0349681 	2.22189 	9.78937e-08 	17.7781 	2.22188 	
8.88755e-12 	8747.13 	1.31207 	2.18678 	0.3 	1.86667 	1.1903 	1.11111e-05 	
0.000135986 	9.06576e-05 	0.00146543 	26646.5 	0.0942697 	0.323241 	26646.4 	26646.4 	0 	
0.0001 	6.14845e-09 	0.843947 	0.0780266 	0.0780266 	-0.148426 	-1.42846e-05 	
0.148412 	0.113444 	0.0349679 	1.11094 	9.78937e-08 	19.4445 	0.555469 	
4.44375e-12 	4373.57 	0.656035 	1.09339 	0.3 	0.933333 	1.19029 	5.55556e-06 	
6.79932e-05 	4.53288e-05 	0.00146508 	26642 	0.106006 	0.0646477 	26641.9 	26641.9 	0 	
ZONE T = "t = 7.75e-08 [s]" I = 10 SOLUTIONTIME = 7.7500000000000E-08
0 	3.39828e-10 	0.843947 	0.0780266 	0.0780266 	-0.148426 	0 	
0.148426 	0.113444 	0.0349821 	1.11146 	5.75972e-09 	0.555728 	19.4443 	
6.11301e-12 	4373.57 	0.656035 	1.09339 	0.3 	0.933333 	1.19085 	5.55556e-06 	
6.79932e-05 	4.53288e-05 	0.0020671 	26665.8 	0.000344779 	17.5557 	26660.7 	26660.7 	0 	
1.11111e-05 	1.01945e-09 	0.843947 	0.0780266 	0.0780266 	-0.148426 	-2.99818e-06 	
0.148423 	0.113444 	0.0349791 	2.22269 	1.7278e-08 	2.2228 	17.7772 	
1.22248e-11 	8747.13 	1.31207 	2.18678 	0.3 	1.86667 	1.19073 	1.11111e-05 	
0.000135986 	9.06576e-05 	0.00206616 	26663.6 	0.00172369 	15.6114 	26659.1 	26659.1 	0 	
2.22222e-05 	1.69896e-09 	0.843947 	0.0780266 	0.0780266 	-0.148426 	-5.64355e-06 	
0.148421 	0.113444 	0.0349765 	2.2225 	2.87953e-08 	4.4454 	15.5546 	
1.22238e-11 	8747.13 	1.31207 	2.18678 	0.3 	1.86667 	1.19063 	1.11111e-05 	
0.000135986 	9.06576e-05 	0.00206585 	26660.9 	0.00586006 	11.966 	26657.4 	26657.4 	0 	
3.33333e-05 	2.37836e-09 	0.843947 	0.0780266 	0.0780266 	-0.148426 	-7.93615e-06 	
0.148418 	0.113444 	0.0349742 	2.22233 	4.03118e-08 	6.66782 	13.3322 	
1.22228e-11 	8747.13 	1.31207 	2.18678 	0.3 	1.86667 	1.19054 	1.11111e-05 	
0.000135986 	9.06576e-05 	0.00206536 	26658.2 	0.0127532 	8.80704 	26655.6 	26655.6 	0 	
4.44444e-05 	3.05776e-09 	0.843947 	0.0780266 	0.0780266 	-0.148426 	-9.87599e-06 	
0.148416 	0.113444 	0.0349723 	2.22219 	5.18275e-08 	8.89009 	11.1099 	
1.22221e-11 	8747.13 	1.31207 	2.18678 	0.3 	1.86667 	1.19046 	1.11111e-05 	
0.000135986 	9.06576e-05 	0.00206573 	26664.6 	0.0224026 	6.1343 	26662.8 	26662.8 	0 	
5.55556e-05 	3.73719e-09 	0.843947 	0.0780266 	0.0780266 	-0.148426 	-1.14631e-05 	
0.148415 	0.113444 	0.0349707 	2.22208 	6.33426e-08 	11.1122 	8.88778 	
1.22214e-11 	8747.13 	1.31207 	2.18678 	0.3 	1.86667 	1.1904 	1.11111e-05 	
0.000135986 	9.06576e-05 	0.00206507 	26637.9 	0.0348079 	3.94768 	26636.7 	26636.7 	0 	
6.66667e-05 	4.41657e-09 	0.843947 	0.0780266 	0.0780266 	-0.148426 	-1.26975e-05 	
0.148414 	0.113444 	0.0349695 	2.22199 	7.48572e-08 	13.3343 	6.66575 	
1.22209e-11 	8747.13 	1.31207 	2.18678 	0.3 	1.86667 	1.19035 	1.11111e-05 	
0.000135986 	9.06576e-05 	0.00206553 	26652.7 	0.0499686 	2.24708 	26652.1 	26652.1 	0 	
7.77778e-05 	5.09587e-09 	0.843947 	0.0780266 	0.0780266 	-0.148426 	-1.35792e-05 	
0.148413 	0.113444 	0.0349686 	2.22193 	8.63716e-08 	15.5562 	4.44379 	
1.22206e-11 	8747.13 	1.31207 	2.18678 	0.3 	1.86667 	1.19032 	1.11111e-05 	
0.000135986 	9.06576e-05 	0.00206466 	26651.3 	0.0678848 	1.03242 	26651 	26651 	0 	
8.88889e-05 	5.777e-09 	0.843947 	0.0780266 	0.0780266 	-0.148426 	-1.41082e-05 	
0.148412 	0.113444 	0.0349681 	2.22189 	9.78969e-08 	17.7781 	2.22188 	
1.22204e-11 	8747.13 	1.31207 	2.18678 	0.3 	1.86667 	1.1903 	1.11111e-05 	
0.000135986 	9.06576e-05 	0.002065 	26647.8 	0.0885563 	0.30365 	26647.6 	26647.6 	0 	
0.0001 	6.16074e-09 	0.843947 	0.0780266 	0.0780266 	-0.148426 	-1.42846e-05 	
0.148412 	0.113444 	0.0349679 	1.11094 	9.78969e-08 	19.4445 	0.555469 	
6.11016e-12 	4373.57 	0.656035 	1.09339 	0.3 	0.933333 	1.19029 	5.55556e-06 	
6.79932e-05 	4.53288e-05 	0.00206474 	26651.4 	0.099581 	0.0607297 	26651.4 	26651.4 	0 	
ZONE T = "t = 1.1125e-07 [s]" I = 10 SOLUTIONTIME = 1.1125000000000E-07
0 	3.39837e-10 	0.843947 	0.0780266 	0.0780266 	-0.148426 	0 	
0.148426 	0.113444 	0.0349821 	1.11146 	5.75972e-09 	0.555728 	19.4443 	
8.61379e-12 	4373.57 	0.656035 	1.09339 	0.3 	0.933333 	1.19085 	5.55556e-06 	
6.79932e-05 	4.53288e-05 	0.00296704 	26665.1 	0.00032995 	16.8006 	26660 	26660 	0 	
1.11111e-05 	1.01943e-09 	0.843947 	0.0780266 	0.0780266 	-0.148426 	-2.99818e-06 	
0.148423 	0.113444 	0.0349791 	2.22269 	1.7278e-08 	2.2228 	17.7772 	
1.72259e-11 	8747.13 	1.31207 	2.18678 	0.3 	1.86667 	1.19073 	1.11111e-05 	
0.000135986 	9.06576e-05 	0.00296592 	26659.4 	0.00164955 	14.9399 	26654.8 	26654.8 	0 	
2.22222e-05 	1.69895e-09 	0.843947 	0.0780266 	0.0780266 	-0.148426 	-5.64355e-06 	
0.148421 	0.113444 	0.0349765 	2.2225 	2.87953e-08 	4.4454 	15.5546 	
1.72244e-11 	8747.13 	1.31207 	2.18678 	0.3 	1.86667 	1.19063 	1.11111e-05 	
0.000135986 	9.06576e-05 	0.00296539 	26653.1 	0.00560802 	11.4514 	26649.6 	26649.6 	0 	
3.33333e-05 	2.37845e-09 	0.843947 	0.0780266 	0.0780266 	-0.148426 	-7.93615e-06 	
0.148418 	0.113444 	0.0349742 	2.22233 	4.03118e-08 	6.66782 	13.3322 	
1.72231e-11 	8747.13 	1.31207 	2.18678 	0.3 	1.86667 	1.19054 	1.11111e-05 	
0.000135986 	9.06576e-05 	0.00296492 	26653.5 	0.0122047 	8.42824 	26650.9 	26650.9 	0 	
4.44444e-05 	3.05789e-09 	0.843947 	0.0780266 	0.0780266 	-0.148426 	-9.87599e-06 	
0.148416 	0.113444 	0.0349723 	2.22219 	5.18275e-08 	8.89009 	11.1099 	
1.7222e-11 	8747.13 	1.31207 	2.18678 	0.3 	1.86667 	1.19046 	1.11111e-05 	
0.000135986 	9.06576e-05 	0.00296567 	26665.1 	0.0214391 	5.87046 	26663.3 	26663.3 	0 	
5.55556e-05 	3.73726e-09 	0.843947 	0.0780266 	0.0780266 	-0.148426 	-1.14631e-05 	
0.148415 	0.113444 	0.0349707 	2.22208 	6.33426e-08 	11.1122 	8.88778 	
1.72211e-11 	8747.13 	1.31207 	2.18678 	0.3 	1.86667 	1.1904 	1.11111e-05 	
0.000135986 	9.06576e-05 	0.00296434 	26644.8 	0.0333107 	3.77789 	26643.7 	26643.7 	0 	
6.66667e-05 	4.41662e-09 	0.843947 	0.0780266 	0.0780266 	-0.148426 	-1.26975e-05 	
0.148414 	0.113444 	0.0349695 	2.22199 	7.48572e-08 	13.3343 	6.66575 	
1.72204e-11 	8747.13 	1.31207 	2.18678 	0.3 	1.86667 	1.19035 	1.11111e-05 	
0.000135986 	9.06576e-05 	0.00296483 	26645.9 	0.0478194 	2.15043 	26645.2 	26645.2 	0 	
7.77778e-05 	5.09598e-09 	0.843947 	0.0780266 	0.0780266 	-0.148426 	-1.35792e-05 	
0.148413 	0.113444 	0.0349686 	2.22193 	8.63716e-08 	15.5562 	4.44379 	
1.72199e-11 	8747.13 	1.31207 	2.18678 	0.3 	1.86667 	1.19032 	1.11111e-05 	
0.000135986 	9.06576e-05 	0.00296419 	26652.5 	0.064965 	0.988017 	26652.2 	26652.2 	0 	
8.88889e-05 	5.77805e-09 	0.843947 	0.0780266 	0.0780266 	-0.148426 	-1.41082e-05 	
0.148412 	0.113444 	0.0349681 	2.22189 	9.79017e-08 	17.7781 	2.22188 	
1.72196e-11 	8747.13 	1.31207 	2.18678 	0.3 	1.86667 	1.1903 	1.11111e-05 	
0.000135986 	9.06576e-05 	0.00296445 	26650.4 	0.0847475 	0.29059 	26650.3 	26650.3 	0 	
0.0001 	6.17817e-09 	0.843947 	0.0780266 	0.0780266 	-0.148426 	-1.42846e-05 	
0.148412 	0.113444 	0.0349679 	1.11094 	9.79017e-08 	19.4445 	0.555469 	
8.60977e-12 	4373.57 	0.656035 	1.09339 	0.3 	0.933333 	1.19029 	5.55556e-06 	
6.79932e-05 	4.53288e-05 	0.00296421 	26650.9 	0.0952979 	0.0581176 	26650.8 	26650.8 	0 	
ZONE T = "t = 1.61875e-07 [s]" I = 10 SOLUTIONTIME = 1.6187500000000E-07
0 	3.39823e-10 	0.843947 	0.0780266 	0.0780266 	-0.148426 	0 	
0.148426 	0.113444 	0.0349821 	1.11146 	5.75972e-09 	0.555728 	19.4443 	
1.2365e-11 	4373.57 	0.656035 	1.09339 	0.3 	0.933333 	1.19085 	5.55556e-06 	
6.79932e-05 	4.53288e-05 	0.00431701 	26666.1 	0.000320064 	16.2972 	26661 	26661 	0 	
1.11111e-05 	1.0194e-09 	0.843947 	0.0780266 	0.0780266 	-0.148426 	-2.99818e-06 	
0.148423 	0.113444 	0.0349791 	2.22269 	1.7278e-08 	2.2228 	17.7772 	
2.47275e-11 	8747.13 	1.31207 	2.18678 	0.3 	1.86667 	1.19073 	1.11111e-05 	
0.000135986 	9.06576e-05 	0.00431561 	26660.6 	0.00160013 	14.4923 	26656.1 	26656.1 	0 	
2.22222e-05 	1.69891e-09 	0.843947 	0.0780266 	0.0780266 	-0.148426 	-5.64355e-06 	
0.148421 	0.113444 	0.0349765 	2.2225 	2.87953e-08 	4.4454 	15.5546 	
2.47253e-11 	8747.13 	1.31207 	2.18678 	0.3 	1.86667 	1.19063 	1.11111e-05 	
0.000135986 	9.06576e-05 	0.00431517 	26662.4 	0.00543998 	11.1082 	26658.9 	26658.9 	0 	
3.33333e-05 	2.37837e-09 	0.843947 	0.0780266 	0.0780266 	-0.148426 	-7.93615e-06 	
0.148418 	0.113444 	0.0349742 	2.22233 	4.03118e-08 	6.66782 	13.3322 	
2.47235e-11 	8747.13 	1.31207 	2.18678 	0.3 	1.86667 	1.19054 	1.11111e-05 	
0.000135986 	9.06576e-05 	0.00431419 	26652.3 	0.011839 	8.17571 	26649.7 	26649.7 	0 	
4.44444e-05 	3.0578e-09 	0.843947 	0.0780266 	0.0780266 	-0.148426 	-9.87599e-06 	
0.148416 	0.113444 	0.0349723 	2.22219 	5.18275e-08 	8.89009 	11.1099 	
2.47219e-11 	8747.13 	1.31207 	2.18678 	0.3 	1.86667 	1.19046 	1.11111e-05 	
0.000135986 	9.06576e-05 	0.0043149 	26651.3 	0.0207967 	5.69456 	26649.5 	26649.5 	0 	
5.55556e-05 	3.73719e-09 	0.843947 	0.0780266 	0.0780266 	-0.148426 	-1.14631e-05 	
0.148415 	0.113444 	0.0349707 	2.22208 	6.33426e-08 	11.1122 	8.88778 	
2.47206e-11 	8747.13 	1.31207 	2.18678 	0.3 	1.86667 	1.1904 	1.11111e-05 	
0.000135986 	9.06576e-05 	0.00431328 	26645.7 	0.0323127 	3.66469 	26644.6 	26644.6 	0 	
6.66667e-05 	4.41656e-09 	0.843947 	0.0780266 	0.0780266 	-0.148426 	-1.26975e-05 	
0.148414 	0.113444 	0.0349695 	2.22199 	7.48572e-08 	13.3343 	6.66575 	
2.47196e-11 	8747.13 	1.31207 	2.18678 	0.3 	1.86667 	1.19035 	1.11111e-05 	
0.000135986 	9.06576e-05 	0.00431422 	26654.6 	0.0463867 	2.086 	26653.9 	26653.9 	0 	
7.77778e-05 	5.09592e-09 	0.843947 	0.0780266 	0.0780266 	-0.148426 	-1.35792e-05 	
0.148413 	0.113444 	0.0349686 	2.22193 	8.63716e-08 	15.5562 	4.44379 	
2.47189e-11 	8747.13 	1.31207 	2.18678 	0.3 	1.86667 	1.19032 	1.11111e-05 	
0.000135986 	9.06576e-05 	0.00431347 	26652.6 	0.0630185 	0.958414 	26652.3 	26652.3 	0 	
8.88889e-05 	5.77926e-09 	0.843947 	0.0780266 	0.0780266 	-0.148426 	-1.41082e-05 	
0.148412 	0.113444 	0.0349681 	2.22189 	9.79091e-08 	17.7781 	2.22188 	
2.47185e-11 	8747.13 	1.31207 	2.18678 	0.3 	1.86667 	1.1903 	1.11111e-05 	
0.000135986 	9.06576e-05 	0.00431286 	26635.2 	0.0822082 	0.281883 	26635.1 	26635.1 	0 	
0.0001 	6.20138e-09 	0.843947 	0.0780266 	0.0780266 	-0.148426 	-1.42846e-05 	
0.148412 	0.113444 	0.0349679 	1.11094 	9.79091e-08 	19.4445 	0.555469 	
1.23592e-11 	4373.57 	0.656035 	1.09339 	0.3 	0.933333 	1.19029 	5.55556e-06 	
6.79932e-05 	4.53288e-05 	0.0043134 	26650.8 	0.0924425 	0.0563763 	26650.7 	26650.7 	0 	
ZONE T = "t = 2.37813e-07 [s]" I = 10 SOLUTIONTIME = 2.3781250000000E-07
0 	3.39825e-10 	0.843947 	0.0780266 	0.0780266 	-0.148426 	0 	
0.148426 	0.113444 	0.0349821 	1.11146 	5.75973e-09 	0.555728 	19.4443 	
1.79917e-11 	4373.57 	0.656035 	1.09339 	0.3 	0.933333 	1.19085 	5.55556e-06 	
6.79932e-05 	4.53288e-05 	0.006342 	26666.5 	0.000313473 	15.9616 	26661.4 	26661.4 	0 	
1.11111e-05 	1.01941e-09 	0.843947 	0.0780266 	0.0780266 	-0.148426 	-2.99818e-06 	
0.148423 	0.113444 	0.0349791 	2.22269 	1.7278e-08 	2.2228 	17.7772 	
3.59799e-11 	8747.13 	1.31207 	2.18678 	0.3 	1.86667 	1.19073 	1.11111e-05 	
0.000135986 	9.06576e-05 	0.00634029 	26662.5 	0.00156718 	14.1939 	26658 	26658 	0 	
2.22222e-05 	1.69894e-09 	0.843947 	0.0780266 	0.0780266 	-0.148426 	-5.64355e-06 	
0.148421 	0.113444 	0.0349765 	2.2225 	2.87953e-08 	4.4454 	15.5546 	
3.59767e-11 	8747.13 	1.31207 	2.18678 	0.3 	1.86667 	1.19063 	1.11111e-05 	
0.000135986 	9.06576e-05 	0.00633963 	26659.5 	0.00532796 	10.8795 	26656 	26656 	0 	
3.33333e-05 	2.37842e-09 	0.843947 	0.0780266 	0.0780266 	-0.148426 	-7.93615e-06 	
0.148418 	0.113444 	0.0349742 	2.22233 	4.03118e-08 	6.66782 	13.3322 	