TITLE = "Solution on Domain BulkDomain1D_1"
VARIABLES = "x [m]"  
"Vel_axial(0)" 	"MF_sp(ECDMC)" 	"MF_sp(Li+)" 	"MF_sp(PF6-)" 	"Volt(Electroly)" 	"qHeat_accum [J/m3]" 	"qHeat_step [W/m3]" 	"Joule_Lyte [W/m3]" 	"Joule_Solid [W/m3]" 	
ZONE T = "t = 0 [s]" I = 10 SOLUTIONTIME = 0.0000000000000E+00
0.0001 	0 	0.843947 	0.0780266 	0.0780266 	-0.07 	
0 	0.0 	 0.0 	 0.0 	 
0.000102778 	0 	0.843947 	0.0780266 	0.0780266 	-0.07 	
0 	0.0 	 0.0 	 0.0 	 
0.000105556 	0 	0.843947 	0.0780266 	0.0780266 	-0.07 	
0 	0.0 	 0.0 	 0.0 	 
0.000108333 	0 	0.843947 	0.0780266 	0.0780266 	-0.07 	
0 	0.0 	 0.0 	 0.0 	 
0.000111111 	0 	0.843947 	0.0780266 	0.0780266 	-0.07 	
0 	0.0 	 0.0 	 0.0 	 
0.000113889 	0 	0.843947 	0.0780266 	0.0780266 	-0.07 	
0 	0.0 	 0.0 	 0.0 	 
0.000116667 	0 	0.843947 	0.0780266 	0.0780266 	-0.07 	
0 	0.0 	 0.0 	 0.0 	 
0.000119444 	0 	0.843947 	0.0780266 	0.0780266 	-0.07 	
0 	0.0 	 0.0 	 0.0 	 
0.000122222 	0 	0.843947 	0.0780266 	0.0780266 	-0.07 	
0 	0.0 	 0.0 	 0.0 	 
0.000125 	0 	0.843947 	0.0780266 	0.0780266 	-0.07 	
0 	0.0 	 0.0 	 0.0 	 
ZONE T = "t = 1e-08 [s]" I = 10 SOLUTIONTIME = 1.0000000000000E-08
0.0001 	6.12169e-09 	0.843947 	0.0780266 	0.0780266 	-0.148426 	
5.32572e-11 	0.00532572 	0.00532572 	0 	
0.000102778 	6.11534e-09 	0.843947 	0.0780266 	0.0780266 	-0.148426 	
5.32572e-11 	0.00532572 	0.00532572 	0 	
0.000105556 	6.11534e-09 	0.843947 	0.0780266 	0.0780266 	-0.148426 	
5.32572e-11 	0.00532572 	0.00532572 	0 	
0.000108333 	6.11534e-09 	0.843947 	0.0780266 	0.0780266 	-0.148426 	
5.32572e-11 	0.00532572 	0.00532572 	0 	
0.000111111 	6.11534e-09 	0.843947 	0.0780266 	0.0780266 	-0.148426 	
5.32572e-11 	0.00532572 	0.00532572 	0 	
0.000113889 	6.11534e-09 	0.843947 	0.0780266 	0.0780266 	-0.148426 	
5.32572e-11 	0.00532572 	0.00532572 	0 	
0.000116667 	6.11534e-09 	0.843947 	0.0780266 	0.0780266 	-0.148426 	
5.32572e-11 	0.00532572 	0.00532572 	0 	
0.000119444 	6.11545e-09 	0.843947 	0.0780266 	0.0780266 	-0.148426 	
5.32572e-11 	0.00532572 	0.00532572 	0 	
0.000122222 	6.12016e-09 	0.843947 	0.0780266 	0.0780266 	-0.148426 	
5.32572e-11 	0.00532572 	0.00532572 	0 	
0.000125 	4.92916e-09 	0.843947 	0.0780266 	0.0780266 	-0.148426 	
5.32572e-11 	0.00532572 	0.00532572 	0 	
ZONE T = "t = 2e-08 [s]" I = 10 SOLUTIONTIME = 2.0000000000000E-08
0.0001 	6.12781e-09 	0.843947 	0.0780266 	0.0780266 	-0.148426 	
1.06514e-10 	0.00532572 	0.00532572 	0 	
0.000102778 	6.11538e-09 	0.843947 	0.0780266 	0.0780266 	-0.148426 	
1.06514e-10 	0.00532572 	0.00532572 	0 	
0.000105556 	6.11506e-09 	0.843947 	0.0780266 	0.0780266 	-0.148426 	
1.06514e-10 	0.00532572 	0.00532572 	0 	
0.000108333 	6.11506e-09 	0.843947 	0.0780266 	0.0780266 	-0.148426 	
1.06514e-10 	0.00532572 	0.00532572 	0 	
0.000111111 	6.11506e-09 	0.843947 	0.0780266 	0.0780266 	-0.148426 	
1.06514e-10 	0.00532572 	0.00532572 	0 	
0.000113889 	6.11506e-09 	0.843947 	0.0780266 	0.0780266 	-0.148426 	
1.06514e-10 	0.00532572 	0.00532572 	0 	
0.000116667 	6.11506e-09 	0.843947 	0.0780266 	0.0780266 	-0.148426 	
1.06514e-10 	0.00532572 	0.00532572 	0 	
0.000119444 	6.11522e-09 	0.843947 	0.0780266 	0.0780266 	-0.148426 	
1.06514e-10 	0.00532572 	0.00532572 	0 	
0.000122222 	6.12416e-09 	0.843947 	0.0780266 	0.0780266 	-0.148426 	
1.06514e-10 	0.00532572 	0.00532572 	0 	
0.000125 	4.92884e-09 	0.843947 	0.0780266 	0.0780266 	-0.148426 	
1.06514e-10 	0.00532572 	0.00532572 	0 	
ZONE T = "t = 3e-08 [s]" I = 10 SOLUTIONTIME = 3.0000000000000E-08
0.0001 	6.13358e-09 	0.843947 	0.0780266 	0.0780266 	-0.148426 	
1.59772e-10 	0.00532572 	0.00532572 	0 	
0.000102778 	6.11518e-09 	0.843947 	0.0780266 	0.0780266 	-0.148426 	
1.59772e-10 	0.00532572 	0.00532572 	0 	
0.000105556 	6.11475e-09 	0.843947 	0.0780266 	0.0780266 	-0.148426 	
1.59772e-10 	0.00532572 	0.00532572 	0 	
0.000108333 	6.11476e-09 	0.843947 	0.0780266 	0.0780266 	-0.148426 	
1.59772e-10 	0.00532572 	0.00532572 	0 	
0.000111111 	6.11476e-09 	0.843947 	0.0780266 	0.0780266 	-0.148426 	
1.59772e-10 	0.00532572 	0.00532572 	0 	
0.000113889 	6.11476e-09 	0.843947 	0.0780266 	0.0780266 	-0.148426 	
1.59772e-10 	0.00532572 	0.00532572 	0 	
0.000116667 	6.11486e-09 	0.843947 	0.0780266 	0.0780266 	-0.148426 	
1.59772e-10 	0.00532572 	0.00532572 	0 	
0.000119444 	6.11518e-09 	0.843947 	0.0780266 	0.0780266 	-0.148426 	
1.59772e-10 	0.00532572 	0.00532572 	0 	
0.000122222 	6.12845e-09 	0.843947 	0.0780266 	0.0780266 	-0.148426 	
1.59772e-10 	0.00532572 	0.00532572 	0 	
0.000125 	4.92874e-09 	0.843947 	0.0780266 	0.0780266 	-0.148426 	
1.59772e-10 	0.00532572 	0.00532572 	0 	
ZONE T = "t = 4e-08 [s]" I = 10 SOLUTIONTIME = 4.0000000000000E-08
0.0001 	6.1399e-09 	0.843947 	0.0780266 	0.0780266 	-0.148426 	
2.13029e-10 	0.00532572 	0.00532572 	0 	
0.000102778 	6.11596e-09 	0.843947 	0.0780266 	0.0780266 	-0.148426 	
2.13029e-10 	0.00532572 	0.00532572 	0 	
0.000105556 	6.11527e-09 	0.843947 	0.0780266 	0.0780266 	-0.148426 	
2.13029e-10 	0.00532572 	0.00532572 	0 	
0.000108333 	6.11527e-09 	0.843947 	0.0780266 	0.0780266 	-0.148426 	
2.13029e-10 	0.00532572 	0.00532572 	0 	
0.000111111 	6.11527e-09 	0.843947 	0.0780266 	0.0780266 	-0.148426 	
2.13029e-10 	0.00532572 	0.00532572 	0 	
0.000113889 	6.11527e-09 	0.843947 	0.0780266 	0.0780266 	-0.148426 	
2.13029e-10 	0.00532572 	0.00532572 	0 	
0.000116667 	6.11521e-09 	0.843947 	0.0780266 	0.0780266 	-0.148426 	
2.13029e-10 	0.00532572 	0.00532572 	0 	
0.000119444 	6.1158e-09 	0.843947 	0.0780266 	0.0780266 	-0.148426 	
2.13029e-10 	0.00532572 	0.00532572 	0 	
0.000122222 	6.13308e-09 	0.843947 	0.0780266 	0.0780266 	-0.148426 	
2.13029e-10 	0.00532572 	0.00532572 	0 	
0.000125 	4.92931e-09 	0.843947 	0.0780266 	0.0780266 	-0.148426 	
2.13029e-10 	0.00532572 	0.00532572 	0 	
ZONE T = "t = 5.5e-08 [s]" I = 10 SOLUTIONTIME = 5.5000000000000E-08
0.0001 	6.14845e-09 	0.843947 	0.0780266 	0.0780266 	-0.148426 	
2.92915e-10 	0.00532572 	0.00532572 	0 	
0.000102778 	6.11627e-09 	0.843947 	0.0780266 	0.0780266 	-0.148426 	
2.92915e-10 	0.00532572 	0.00532572 	0 	
0.000105556 	6.11489e-09 	0.843947 	0.0780266 	0.0780266 	-0.148426 	
2.92915e-10 	0.00532572 	0.00532572 	0 	
0.000108333 	6.11482e-09 	0.843947 	0.0780266 	0.0780266 	-0.148426 	
2.92915e-10 	0.00532572 	0.00532572 	0 	
0.000111111 	6.11482e-09 	0.843947 	0.0780266 	0.0780266 	-0.148426 	
2.92915e-10 	0.00532572 	0.00532572 	0 	
0.000113889 	6.11482e-09 	0.843947 	0.0780266 	0.0780266 	-0.148426 	
2.92915e-10 	0.00532572 	0.00532572 	0 	
0.000116667 	6.11482e-09 	0.843947 	0.0780266 	0.0780266 	-0.148426 	
2.92915e-10 	0.00532572 	0.00532572 	0 	
0.000119444 	6.11574e-09 	0.843947 	0.0780266 	0.0780266 	-0.148426 	
2.92915e-10 	0.00532572 	0.00532572 	0 	
0.000122222 	6.13886e-09 	0.843947 	0.0780266 	0.0780266 	-0.148426 	
2.92915e-10 	0.00532572 	0.00532572 	0 	
0.000125 	4.92914e-09 	0.843947 	0.0780266 	0.0780266 	-0.148426 	
2.92915e-10 	0.00532572 	0.00532572 	0 	
ZONE T = "t = 7.75e-08 [s]" I = 10 SOLUTIONTIME = 7.7500000000000E-08
0.0001 	6.16074e-09 	0.843947 	0.0780266 	0.0780266 	-0.148426 	
4.12743e-10 	0.00532572 	0.00532572 	0 	
0.000102778 	6.11746e-09 	0.843947 	0.0780266 	0.0780266 	-0.148426 	
4.12743e-10 	0.00532572 	0.00532572 	0 	
0.000105556 	6.11504e-09 	0.843947 	0.0780266 	0.0780266 	-0.148426 	
4.12743e-10 	0.00532572 	0.00532572 	0 	
0.000108333 	6.11496e-09 	0.843947 	0.0780266 	0.0780266 	-0.148426 	
4.12743e-10 	0.00532572 	0.00532572 	0 	
0.000111111 	6.11496e-09 	0.843947 	0.0780266 	0.0780266 	-0.148426 	
4.12743e-10 	0.00532572 	0.00532572 	0 	
0.000113889 	6.11496e-09 	0.843947 	0.0780266 	0.0780266 	-0.148426 	
4.12743e-10 	0.00532572 	0.00532572 	0 	
0.000116667 	6.11506e-09 	0.843947 	0.0780266 	0.0780266 	-0.148426 	
4.12743e-10 	0.00532572 	0.00532572 	0 	
0.000119444 	6.11684e-09 	0.843947 	0.0780266 	0.0780266 	-0.148426 	
4.12743e-10 	0.00532572 	0.00532572 	0 	
0.000122222 	6.14807e-09 	0.843947 	0.0780266 	0.0780266 	-0.148426 	
4.12743e-10 	0.00532572 	0.00532572 	0 	
0.000125 	4.9298e-09 	0.843947 	0.0780266 	0.0780266 	-0.148426 	
4.12743e-10 	0.00532572 	0.00532572 	0 	
ZONE T = "t = 1.1125e-07 [s]" I = 10 SOLUTIONTIME = 1.1125000000000E-07
0.0001 	6.17817e-09 	0.843947 	0.0780266 	0.0780266 	-0.148426 	
5.92486e-10 	0.00532572 	0.00532572 	0 	
0.000102778 	6.11993e-09 	0.843947 	0.0780266 	0.0780266 	-0.148426 	
5.92486e-10 	0.00532572 	0.00532572 	0 	
0.000105556 	6.11531e-09 	0.843947 	0.0780266 	0.0780266 	-0.148426 	
5.92486e-10 	0.00532572 	0.00532572 	0 	
0.000108333 	6.11501e-09 	0.843947 	0.0780266 	0.0780266 	-0.148426 	
5.92486e-10 	0.00532572 	0.00532572 	0 	
0.000111111 	6.11501e-09 	0.843947 	0.0780266 	0.0780266 	-0.148426 	
5.92486e-10 	0.00532572 	0.00532572 	0 	
0.000113889 	6.11503e-09 	0.843947 	0.0780266 	0.0780266 	-0.148426 	
5.92486e-10 	0.00532572 	0.00532572 	0 	
0.000116667 	6.11525e-09 	0.843947 	0.0780266 	0.0780266 	-0.148426 	
5.92486e-10 	0.00532572 	0.00532572 	0 	
0.000119444 	6.11858e-09 	0.843947 	0.0780266 	0.0780266 	-0.148426 	
5.92486e-10 	0.00532572 	0.00532572 	0 	
0.000122222 	6.16061e-09 	0.843947 	0.0780266 	0.0780266 	-0.148426 	
5.92486e-10 	0.00532572 	0.00532572 	0 	
0.000125 	4.9305e-09 	0.843947 	0.0780266 	0.0780266 	-0.148426 	
5.92486e-10 	0.00532572 	0.00532572 	0 	
ZONE T = "t = 1.61875e-07 [s]" I = 10 SOLUTIONTIME = 1.6187500000000E-07
0.0001 	6.20138e-09 	0.843947 	0.0780266 	0.0780266 	-0.148426 	
8.62101e-10 	0.00532572 	0.00532572 	0 	
0.000102778 	6.12427e-09 	0.843947 	0.0780266 	0.0780266 	-0.148426 	
8.62101e-10 	0.00532572 	0.00532572 	0 	
0.000105556 	6.11567e-09 	0.843947 	0.0780266 	0.0780266 	-0.148426 	
8.62101e-10 	0.00532572 	0.00532572 	0 	
0.000108333 	6.11492e-09 	0.843947 	0.0780266 	0.0780266 	-0.148426 	
8.62101e-10 	0.00532572 	0.00532572 	0 	
0.000111111 	6.11487e-09 	0.843947 	0.0780266 	0.0780266 	-0.148426 	
8.62101e-10 	0.00532572 	0.00532572 	0 	
0.000113889 	6.11491e-09 	0.843947 	0.0780266 	0.0780266 	-0.148426 	
8.62101e-10 	0.00532572 	0.00532572 	0 	
0.000116667 	6.11545e-09 	0.843947 	0.0780266 	0.0780266 	-0.148426 	
8.62101e-10 	0.00532572 	0.00532572 	0 	
0.000119444 	6.12162e-09 	0.843947 	0.0780266 	0.0780266 	-0.148426 	
8.62101e-10 	0.00532572 	0.00532572 	0 	
0.000122222 	6.17722e-09 	0.843947 	0.0780266 	0.0780266 	-0.148426 	
8.62101e-10 	0.00532572 	0.00532572 	0 	
0.000125 	4.93121e-09 	0.843947 	0.0780266 	0.0780266 	-0.148426 	
8.62101e-10 	0.00532572 	0.00532572 	0 	
ZONE T = "t = 2.37813e-07 [s]" I = 10 SOLUTIONTIME = 2.3781250000000E-07
0.0001 	6.23177e-09 	0.843947 	0.0780266 	0.0780266 	-0.148426 	
1.26652e-09 	0.00532572 	0.00532572 	0 	
0.000102778 	6.13259e-09 	0.843947 	0.0780266 	0.0780266 	-0.148426 	
1.26652e-09 	0.00532572 	0.00532572 	0 	
0.000105556 	6.1171e-09 	0.843947 	0.0780266 	0.0780266 	-0.148426 	
1.26652e-09 	0.00532572 	0.00532572 	0 	
0.000108333 	6.11519e-09 	0.843947 	0.0780266 	0.0780266 	-0.148426 	
1.26652e-09 	0.00532572 	0.00532572 	0 	
0.000111111 	6.11501e-09 	0.843947 	0.0780266 	0.0780266 	-0.148426 	
1.26652e-09 	0.00532572 	0.00532572 	0 	
0.000113889 	6.11514e-09 	0.843947 	0.0780266 	0.0780266 	-0.148426 	
1.26652e-09 	0.00532572 	0.00532572 	0 	
0.000116667 	6.11652e-09 	0.843947 	0.0780266 	0.0780266 	-0.148426 	
1.26652e-09 	0.00532572 	0.00532572 	0 	
0.000119444 	6.12769e-09 	0.843947 	0.0780266 	0.0780266 	-0.148426 	
1.26652e-09 	0.00532572 	0.00532572 	0 	
0.000122222 	6.1992e-09 	0.843947 	0.0780266 	0.0780266 	-0.148426 	
1.26652e-09 	0.00532572 	0.00532572 	0 	
0.000125 	4.93286e-09 	0.843947 	0.0780266 	0.0780266 	-0.148426 	
1.26652e-09 	0.00532572 	0.00532572 	0 	
ZONE T = "t = 3.51719e-07 [s]" I = 10 SOLUTIONTIME = 3.5171875000000E-07
0.0001 	6.2692e-09 	0.843947 	0.0780266 	0.0780266 	-0.148426 	
1.87316e-09 	0.00532572 	0.00532572 	0 	
0.000102778 	6.14673e-09 	0.843947 	0.0780266 	0.0780266 	-0.148426 	
1.87316e-09 	0.00532572 	0.00532572 	0 	
0.000105556 	6.1203e-09 	0.843947 	0.0780266 	0.0780266 	-0.148426 	
1.87316e-09 	0.00532572 	0.00532572 	0 	
0.000108333 	6.11573e-09 	0.843947 	0.0780266 	0.0780266 	-0.148426 	
1.87316e-09 	0.00532572 	0.00532572 	0 	
0.000111111 	6.1151e-09 	0.843947 	0.0780266 	0.0780266 	-0.148426 	
1.87316e-09 	0.00532572 	0.00532572 	0 	
0.000113889 	6.11551e-09 	0.843947 	0.0780266 	0.0780266 	-0.148426 	
1.87316e-09 	0.00532572 	0.00532572 	0 	
0.000116667 	6.1188e-09 	0.843947 	0.0780266 	0.0780266 	-0.148426 	
1.87316e-09 	0.00532572 	0.00532572 	0 	
0.000119444 	6.13787e-09 	0.843947 	0.0780266 	0.0780266 	-0.148426 	
1.87316e-09 	0.00532572 	0.00532572 	0 	
0.000122222 	6.22618e-09 	0.843947 	0.0780266 	0.0780266 	-0.148426 	
1.87316e-09 	0.00532572 	0.00532572 	0 	
0.000125 	4.93525e-09 	0.843947 	0.0780266 	0.0780266 	-0.148426 	
1.87316e-09 	0.00532572 	0.00532572 	0 	
ZONE T = "t = 5.22578e-07 [s]" I = 10 SOLUTIONTIME = 5.2257812500000E-07
0.0001 	6.31294e-09 	0.843947 	0.0780266 	0.0780266 	-0.148426 	
2.7831e-09 	0.00532572 	0.00532572 	0 	
0.000102778 	6.16925e-09 	0.843947 	0.0780266 	0.0780266 	-0.148426 	
2.7831e-09 	0.00532572 	0.00532572 	0 	
0.000105556 	6.12736e-09 	0.843947 	0.0780266 	0.0780266 	-0.148426 	
2.7831e-09 	0.00532572 	0.00532572 	0 	
0.000108333 	6.1175e-09 	0.843947 	0.0780266 	0.0780266 	-0.148426 	
2.7831e-09 	0.00532572 	0.00532572 	0 	
0.000111111 	6.11572e-09 	0.843947 	0.0780266 	0.0780266 	-0.148426 	
2.7831e-09 	0.00532572 	0.00532572 	0 	
0.000113889 	6.11681e-09 	0.843947 	0.0780266 	0.0780266 	-0.148426 	
2.7831e-09 	0.00532572 	0.00532572 	0 	
0.000116667 	6.12389e-09 	0.843947 	0.0780266 	0.0780266 	-0.148426 	
2.7831e-09 	0.00532572 	0.00532572 	0 	
0.000119444 	6.15408e-09 	0.843947 	0.0780266 	0.0780266 	-0.148426 	
2.7831e-09 	0.00532572 	0.00532572 	0 	
0.000122222 	6.2577e-09 	0.843947 	0.0780266 	0.0780266 	-0.148426 	
2.7831e-09 	0.00532572 	0.00532572 	0 	
0.000125 	4.93902e-09 	0.843947 	0.0780266 	0.0780266 	-0.148426 	
2.7831e-09 	0.00532572 	0.00532572 	0 	
ZONE T = "t = 7.78867e-07 [s]" I = 10 SOLUTIONTIME = 7.7886718750000E-07
0.0001 	6.36132e-09 	0.843947 	0.0780266 	0.0780266 	-0.148426 	
4.14803e-09 	0.00532572 	0.00532572 	0 	
0.000102778 	6.20203e-09 	0.843947 	0.0780266 	0.0780266 	-0.148426 	
4.14803e-09 	0.00532572 	0.00532572 	0 	
0.000105556 	6.14129e-09 	0.843947 	0.0780266 	0.0780266 	-0.148426 	
4.14803e-09 	0.00532572 	0.00532572 	0 	
0.000108333 	6.12237e-09 	0.843947 	0.0780266 	0.0780266 	-0.148426 	
4.14803e-09 	0.00532572 	0.00532572 	0 	
0.000111111 	6.11802e-09 	0.843947 	0.0780266 	0.0780266 	-0.148426 	
4.14803e-09 	0.00532572 	0.00532572 	0 	
0.000113889 	6.1205e-09 	0.843947 	0.0780266 	0.0780266 	-0.148426 	
4.14803e-09 	0.00532572 	0.00532572 	0 	
0.000116667 	6.13398e-09 	0.843947 	0.0780266 	0.0780266 	-0.148426 	
4.14803e-09 	0.00532572 	0.00532572 	0 	
0.000119444 	6.17775e-09 	0.843947 	0.0780266 	0.0780266 	-0.148426 	
4.14803e-09 	0.00532572 	0.00532572 	0 	
0.000122222 	6.29262e-09 	0.843947 	0.0780266 	0.0780266 	-0.148426 	
4.14803e-09 	0.00532572 	0.00532572 	0 	
0.000125 	4.94509e-09 	0.843947 	0.0780266 	0.0780266 	-0.148426 	
4.14803e-09 	0.00532572 	0.00532572 	0 	
ZONE T = "t = 1.1633e-06 [s]" I = 10 SOLUTIONTIME = 1.1633007812500E-06
0.0001 	6.41257e-09 	0.843947 	0.0780266 	0.0780266 	-0.148426 	
6.19541e-09 	0.00532572 	0.00532572 	0 	
0.000102778 	6.24542e-09 	0.843947 	0.0780266 	0.0780266 	-0.148426 	
6.19541e-09 	0.00532572 	0.00532572 	0 	
0.000105556 	6.16538e-09 	0.843947 	0.0780266 	0.0780266 	-0.148426 	
6.19541e-09 	0.00532572 	0.00532572 	0 	
0.000108333 	6.1337e-09 	0.843947 	0.0780266 	0.0780266 	-0.148426 	
6.19541e-09 	0.00532572 	0.00532572 	0 	
0.000111111 	6.12475e-09 	0.843947 	0.0780266 	0.0780266 	-0.148426 	
6.19541e-09 	0.00532572 	0.00532572 	0 	
0.000113889 	6.12931e-09 	0.843947 	0.0780266 	0.0780266 	-0.148426 	
6.19541e-09 	0.00532572 	0.00532572 	0 	
0.000116667 	6.15156e-09 	0.843947 	0.0780266 	0.0780266 	-0.148426 	
6.19541e-09 	0.00532572 	0.00532572 	0 	
0.000119444 	6.20911e-09 	0.843947 	0.0780266 	0.0780266 	-0.148426 	
6.19541e-09 	0.00532572 	0.00532572 	0 	
0.000122222 	6.32962e-09 	0.843947 	0.0780266 	0.0780266 	-0.148426 	
6.19541e-09 	0.00532572 	0.00532572 	0 	
0.000125 	4.95448e-09 	0.843947 	0.0780266 	0.0780266 	-0.148426 	
6.19541e-09 	0.00532572 	0.00532572 	0 	
ZONE T = "t = 1.73995e-06 [s]" I = 10 SOLUTIONTIME = 1.7399511718750E-06
0.0001 	6.46624e-09 	0.843947 	0.0780266 	0.0780266 	-0.148426 	
9.26649e-09 	0.00532572 	0.00532572 	0 	
0.000102778 	6.29878e-09 	0.843947 	0.0780266 	0.0780266 	-0.148426 	
9.26649e-09 	0.00532572 	0.00532572 	0 	
0.000105556 	6.20271e-09 	0.843947 	0.0780266 	0.0780266 	-0.148426 	
9.26649e-09 	0.00532572 	0.00532572 	0 	
0.000108333 	6.15662e-09 	0.843947 	0.0780266 	0.0780266 	-0.148426 	
9.26649e-09 	0.00532572 	0.00532572 	0 	
0.000111111 	6.14122e-09 	0.843947 	0.0780266 	0.0780266 	-0.148426 	
9.26649e-09 	0.00532572 	0.00532572 	0 	
0.000113889 	6.14786e-09 	0.843947 	0.0780266 	0.0780266 	-0.148426 	
9.26649e-09 	0.00532572 	0.00532572 	0 	
0.000116667 	6.17932e-09 	0.843947 	0.0780266 	0.0780266 	-0.148426 	
9.26649e-09 	0.00532572 	0.00532572 	0 	
0.000119444 	6.24793e-09 	0.843947 	0.0780266 	0.0780266 	-0.148426 	
9.26649e-09 	0.00532572 	0.00532572 	0 	
0.000122222 	6.36849e-09 	0.843947 	0.0780266 	0.0780266 	-0.148426 	
9.26649e-09 	0.00532572 	0.00532572 	0 	
0.000125 	4.96891e-09 	0.843947 	0.0780266 	0.0780266 	-0.148426 	
9.26649e-09 	0.00532572 	0.00532572 	0 	
ZONE T = "t = 2.60493e-06 [s]" I = 10 SOLUTIONTIME = 2.6049267578125E-06
0.0001 	6.52412e-09 	0.843947 	0.0780266 	0.0780266 	-0.148426 	
1.38731e-08 	0.00532572 	0.00532572 	0 	
0.000102778 	6.36184e-09 	0.843947 	0.0780266 	0.0780266 	-0.148426 	
1.38731e-08 	0.00532572 	0.00532572 	0 	
0.000105556 	6.25583e-09 	0.843947 	0.0780266 	0.0780266 	-0.148426 	
1.38731e-08 	0.00532572 	0.00532572 	0 	
0.000108333 	6.19719e-09 	0.843947 	0.0780266 	0.0780266 	-0.148426 	
1.38731e-08 	0.00532572 	0.00532572 	0 	
0.000111111 	6.17473e-09 	0.843947 	0.0780266 	0.0780266 	-0.148426 	
1.38731e-08 	0.00532572 	0.00532572 	0 	
0.000113889 	6.18216e-09 	0.843947 	0.0780266 	0.0780266 	-0.148426 	
1.38731e-08 	0.00532572 	0.00532572 	0 	
0.000116667 	6.22018e-09 	0.843947 	0.0780266 	0.0780266 	-0.148426 	
1.38731e-08 	0.00532572 	0.00532572 	0 	
0.000119444 	6.29465e-09 	0.843947 	0.0780266 	0.0780266 	-0.148426 	
1.38731e-08 	0.00532572 	0.00532572 	0 	
0.000122222 	6.41081e-09 	0.843947 	0.0780266 	0.0780266 	-0.148426 	
1.38731e-08 	0.00532572 	0.00532572 	0 	
0.000125 	4.99069e-09 	0.843947 	0.0780266 	0.0780266 	-0.148426 	
1.38731e-08 	0.00532572 	0.00532572 	0 	
ZONE T = "t = 3.90239e-06 [s]" I = 10 SOLUTIONTIME = 3.9023901367188E-06
0.0001 	6.59074e-09 	0.843947 	0.0780266 	0.0780266 	-0.148426 	
2.0783e-08 	0.00532572 	0.00532572 	0 	
0.000102778 	6.43688e-09 	0.843947 	0.0780266 	0.0780266 	-0.148426 	
2.0783e-08 	0.00532572 	0.00532572 	0 	
0.000105556 	6.32765e-09 	0.843947 	0.0780266 	0.0780266 	-0.148426 	
2.0783e-08 	0.00532572 	0.00532572 	0 	
0.000108333 	6.26114e-09 	0.843947 	0.0780266 	0.0780266 	-0.148426 	
2.0783e-08 	0.00532572 	0.00532572 	0 	
0.000111111 	6.23266e-09 	0.843947 	0.0780266 	0.0780266 	-0.148426 	
2.0783e-08 	0.00532572 	0.00532572 	0 	
0.000113889 	6.23863e-09 	0.843947 	0.0780266 	0.0780266 	-0.148426 	
2.0783e-08 	0.00532572 	0.00532572 	0 	
0.000116667 	6.2782e-09 	0.843947 	0.0780266 	0.0780266 	-0.148426 	
2.0783e-08 	0.00532572 	0.00532572 	0 	
0.000119444 	6.35226e-09 	0.843947 	0.0780266 	0.0780266 	-0.148426 	
2.0783e-08 	0.00532572 	0.00532572 	0 	
0.000122222 	6.46058e-09 	0.843947 	0.0780266 	0.0780266 	-0.148426 	
2.0783e-08 	0.00532572 	0.00532572 	0 	
0.000125 	5.0229e-09 	0.843947 	0.0780266 	0.0780266 	-0.148426 	
2.0783e-08 	0.00532572 	0.00532572 	0 	
ZONE T = "t = 5.84859e-06 [s]" I = 10 SOLUTIONTIME = 5.8485852050781E-06
0.0001 	6.67319e-09 	0.843947 	0.0780266 	0.0780266 	-0.148426 	
3.11479e-08 	0.00532572 	0.00532572 	0 	
0.000102778 	6.52956e-09 	0.843947 	0.0780266 	0.0780266 	-0.148426 	
3.11479e-08 	0.00532572 	0.00532572 	0 	
0.000105556 	6.42267e-09 	0.843947 	0.0780266 	0.0780266 	-0.148426 	
3.11479e-08 	0.00532572 	0.00532572 	0 	
0.000108333 	6.35344e-09 	0.843947 	0.0780266 	0.0780266 	-0.148426 	
3.11479e-08 	0.00532572 	0.00532572 	0 	
0.000111111 	6.32081e-09 	0.843947 	0.0780266 	0.0780266 	-0.148426 	
3.11479e-08 	0.00532572 	0.00532572 	0 	
0.000113889 	6.32313e-09 	0.843947 	0.0780266 	0.0780266 	-0.148426 	
3.11479e-08 	0.00532572 	0.00532572 	0 	
0.000116667 	6.35896e-09 	0.843947 	0.0780266 	0.0780266 	-0.148426 	
3.11479e-08 	0.00532572 	0.00532572 	0 	
0.000119444 	6.4268e-09 	0.843947 	0.0780266 	0.0780266 	-0.148426 	
3.11479e-08 	0.00532572 	0.00532572 	0 	
0.000122222 	6.52419e-09 	0.843947 	0.0780266 	0.0780266 	-0.148426 	
3.11479e-08 	0.00532572 	0.00532572 	0 	
0.000125 	5.06965e-09 	0.843947 	0.0780266 	0.0780266 	-0.148426 	
3.11479e-08 	0.00532572 	0.00532572 	0 	
ZONE T = "t = 8.76788e-06 [s]" I = 10 SOLUTIONTIME = 8.7678778076172E-06
0.0001 	6.78006e-09 	0.843947 	0.0780266 	0.0780266 	-0.148426 	
4.66953e-08 	0.00532572 	0.00532572 	0 	
0.000102778 	6.64777e-09 	0.843947 	0.0780266 	0.0780266 	-0.148426 	
4.66953e-08 	0.00532572 	0.00532572 	0 	
0.000105556 	6.54674e-09 	0.843947 	0.0780266 	0.0780266 	-0.148426 	
4.66953e-08 	0.00532572 	0.00532572 	0 	
0.000108333 	6.47849e-09 	0.843947 	0.0780266 	0.0780266 	-0.148426 	
4.66953e-08 	0.00532572 	0.00532572 	0 	
0.000111111 	6.4433e-09 	0.843947 	0.0780266 	0.0780266 	-0.148426 	
4.66953e-08 	0.00532572 	0.00532572 	0 	
0.000113889 	6.44048e-09 	0.843947 	0.0780266 	0.0780266 	-0.148426 	
4.66953e-08 	0.00532572 	0.00532572 	0 	
0.000116667 	6.46867e-09 	0.843947 	0.0780266 	0.0780266 	-0.148426 	
4.66953e-08 	0.00532572 	0.00532572 	0 	
0.000119444 	6.52586e-09 	0.843947 	0.0780266 	0.0780266 	-0.148426 	
4.66953e-08 	0.00532572 	0.00532572 	0 	
0.000122222 	6.60924e-09 	0.843947 	0.0780266 	0.0780266 	-0.148426 	
4.66953e-08 	0.00532572 	0.00532572 	0 	
0.000125 	5.13628e-09 	0.843947 	0.0780266 	0.0780266 	-0.148426 	
4.66953e-08 	0.00532572 	0.00532572 	0 	
ZONE T = "t = 1.31468e-05 [s]" I = 10 SOLUTIONTIME = 1.3146816711426E-05
0.0001 	6.91997e-09 	0.843947 	0.0780266 	0.0780266 	-0.148426 	
7.00162e-08 	0.00532572 	0.00532572 	0 	
0.000102778 	6.79959e-09 	0.843947 	0.0780266 	0.0780266 	-0.148426 	
7.00162e-08 	0.00532572 	0.00532572 	0 	
0.000105556 	6.70597e-09 	0.843947 	0.0780266 	0.0780266 	-0.148426 	
7.00162e-08 	0.00532572 	0.00532572 	0 	
0.000108333 	6.64041e-09 	0.843947 	0.0780266 	0.0780266 	-0.148426 	
7.00162e-08 	0.00532572 	0.00532572 	0 	
0.000111111 	6.60337e-09 	0.843947 	0.0780266 	0.0780266 	-0.148426 	
7.00162e-08 	0.00532572 	0.00532572 	0 	
0.000113889 	6.59455e-09 	0.843947 	0.0780266 	0.0780266 	-0.148426 	
7.00162e-08 	0.00532572 	0.00532572 	0 	
0.000116667 	6.61287e-09 	0.843947 	0.0780266 	0.0780266 	-0.148426 	
7.00162e-08 	0.00532572 	0.00532572 	0 	
0.000119444 	6.65661e-09 	0.843947 	0.0780266 	0.0780266 	-0.148426 	
7.00162e-08 	0.00532572 	0.00532572 	0 	
0.000122222 	6.72338e-09 	0.843947 	0.0780266 	0.0780266 	-0.148426 	
7.00162e-08 	0.00532572 	0.00532572 	0 	
0.000125 	5.22954e-09 	0.843947 	0.0780266 	0.0780266 	-0.148426 	
7.00162e-08 	0.00532572 	0.00532572 	0 	
ZONE T = "t = 1.97152e-05 [s]" I = 10 SOLUTIONTIME = 1.9715225067139E-05
0.0001 	7.10087e-09 	0.843947 	0.0780266 	0.0780266 	-0.148426 	
1.04998e-07 	0.00532572 	0.00532572 	0 	
0.000102778 	6.99203e-09 	0.843947 	0.0780266 	0.0780266 	-0.148426 	
1.04998e-07 	0.00532572 	0.00532572 	0 	
0.000105556 	6.90579e-09 	0.843947 	0.0780266 	0.0780266 	-0.148426 	
1.04998e-07 	0.00532572 	0.00532572 	0 	
0.000108333 	6.84303e-09 	0.843947 	0.0780266 	0.0780266 	-0.148426 	
1.04998e-07 	0.00532572 	0.00532572 	0 	
0.000111111 	6.80408e-09 	0.843947 	0.0780266 	0.0780266 	-0.148426 	
1.04998e-07 	0.00532572 	0.00532572 	0 	
0.000113889 	6.7887e-09 	0.843947 	0.0780266 	0.0780266 	-0.148426 	
1.04998e-07 	0.00532572 	0.00532572 	0 	
0.000116667 	6.79612e-09 	0.843947 	0.0780266 	0.0780266 	-0.148426 	
1.04998e-07 	0.00532572 	0.00532572 	0 	
0.000119444 	6.82508e-09 	0.843947 	0.0780266 	0.0780266 	-0.148426 	
1.04998e-07 	0.00532572 	0.00532572 	0 	
0.000122222 	6.87382e-09 	0.843947 	0.0780266 	0.0780266 	-0.148426 	
1.04998e-07 	0.00532572 	0.00532572 	0 	
0.000125 	5.35748e-09 	0.843947 	0.0780266 	0.0780266 	-0.148426 	
1.04998e-07 	0.00532572 	0.00532572 	0 	
ZONE T = "t = 2.95678e-05 [s]" I = 10 SOLUTIONTIME = 2.9567837600708E-05
0.0001 	7.33033e-09 	0.843947 	0.0780266 	0.0780266 	-0.148426 	
1.5747e-07 	0.00532572 	0.00532572 	0 	
0.000102778 	7.2315e-09 	0.843947 	0.0780266 	0.0780266 	-0.148426 	
1.5747e-07 	0.00532572 	0.00532572 	0 	
0.000105556 	7.15143e-09 	0.843947 	0.0780266 	0.0780266 	-0.148426 	
1.5747e-07 	0.00532572 	0.00532572 	0 	
0.000108333 	7.09059e-09 	0.843947 	0.0780266 	0.0780266 	-0.148426 	
1.5747e-07 	0.00532572 	0.00532572 	0 	
0.000111111 	7.04915e-09 	0.843947 	0.0780266 	0.0780266 	-0.148426 	
1.5747e-07 	0.00532572 	0.00532572 	0 	
0.000113889 	7.02689e-09 	0.843947 	0.0780266 	0.0780266 	-0.148426 	
1.5747e-07 	0.00532572 	0.00532572 	0 	
0.000116667 	7.02329e-09 	0.843947 	0.0780266 	0.0780266 	-0.148426 	
1.5747e-07 	0.00532572 	0.00532572 	0 	
0.000119444 	7.03747e-09 	0.843947 	0.0780266 	0.0780266 	-0.148426 	
1.5747e-07 	0.00532572 	0.00532572 	0 	
0.000122222 	7.06829e-09 	0.843947 	0.0780266 	0.0780266 	-0.148426 	
1.5747e-07 	0.00532572 	0.00532572 	0 	
0.000125 	5.52954e-09 	0.843947 	0.0780266 	0.0780266 	-0.148426 	
1.5747e-07 	0.00532572 	0.00532572 	0 	
ZONE T = "t = 4.43468e-05 [s]" I = 10 SOLUTIONTIME = 4.4346756401062E-05
0.0001 	7.61673e-09 	0.843947 	0.0780266 	0.0780266 	-0.148426 	
2.36178e-07 	0.00532572 	0.00532572 	0 	
0.000102778 	7.5256e-09 	0.843947 	0.0780266 	0.0780266 	-0.148426 	
2.36178e-07 	0.00532572 	0.00532572 	0 	
0.000105556 	7.44982e-09 	0.843947 	0.0780266 	0.0780266 	-0.148426 	
2.36178e-07 	0.00532572 	0.00532572 	0 	
0.000108333 	7.38962e-09 	0.843947 	0.0780266 	0.0780266 	-0.148426 	
2.36178e-07 	0.00532572 	0.00532572 	0 	
0.000111111 	7.34503e-09 	0.843947 	0.0780266 	0.0780266 	-0.148426 	
2.36178e-07 	0.00532572 	0.00532572 	0 	
0.000113889 	7.31588e-09 	0.843947 	0.0780266 	0.0780266 	-0.148426 	
2.36178e-07 	0.00532572 	0.00532572 	0 	
0.000116667 	7.30183e-09 	0.843947 	0.0780266 	0.0780266 	-0.148426 	
2.36178e-07 	0.00532572 	0.00532572 	0 	
0.000119444 	7.30232e-09 	0.843947 	0.0780266 	0.0780266 	-0.148426 	
2.36178e-07 	0.00532572 	0.00532572 	0 	
0.000122222 	7.31664e-09 	0.843947 	0.0780266 	0.0780266 	-0.148426 	
2.36178e-07 	0.00532572 	0.00532572 	0 	
0.000125 	5.75723e-09 	0.843947 	0.0780266 	0.0780266 	-0.148426 	
2.36178e-07 	0.00532572 	0.00532572 	0 	
ZONE T = "t = 6.65151e-05 [s]" I = 10 SOLUTIONTIME = 6.6515134601593E-05
0.0001 	7.97087e-09 	0.843947 	0.0780266 	0.0780266 	-0.148426 	
3.54241e-07 	0.00532572 	0.00532572 	0 	
0.000102778 	7.88518e-09 	0.843947 	0.0780266 	0.0780266 	-0.148426 	
3.54241e-07 	0.00532572 	0.00532572 	0 	
0.000105556 	7.81201e-09 	0.843947 	0.0780266 	0.0780266 	-0.148426 	
3.54241e-07 	0.00532572 	0.00532572 	0 	
0.000108333 	7.75145e-09 	0.843947 	0.0780266 	0.0780266 	-0.148426 	
3.54241e-07 	0.00532572 	0.00532572 	0 	
0.000111111 	7.70348e-09 	0.843947 	0.0780266 	0.0780266 	-0.148426 	
3.54241e-07 	0.00532572 	0.00532572 	0 	
0.000113889 	7.66798e-09 	0.843947 	0.0780266 	0.0780266 	-0.148426 	
3.54241e-07 	0.00532572 	0.00532572 	0 	
0.000116667 	7.64474e-09 	0.843947 	0.0780266 	0.0780266 	-0.148426 	
3.54241e-07 	0.00532572 	0.00532572 	0 	
0.000119444 	7.63344e-09 	0.843947 	0.0780266 	0.0780266 	-0.148426 	
3.54241e-07 	0.00532572 	0.00532572 	0 	
0.000122222 	7.63366e-09 	0.843947 	0.0780266 	0.0780266 	-0.148426 	
3.54241e-07 	0.00532572 	0.00532572 	0 	
0.000125 	6.05662e-09 	0.843947 	0.0780266 	0.0780266 	-0.148426 	
3.54241e-07 	0.00532572 	0.00532572 	0 	
ZONE T = "t = 9.97677e-05 [s]" I = 10 SOLUTIONTIME = 9.9767701902390E-05
0.0001 	8.40797e-09 	0.843947 	0.0780266 	0.0780266 	-0.148426 	
5.31335e-07 	0.00532572 	0.00532572 	0 	
0.000102778 	8.32663e-09 	0.843947 	0.0780266 	0.0780266 	-0.148426 	
5.31335e-07 	0.00532572 	0.00532572 	0 	
0.000105556 	8.25554e-09 	0.843947 	0.0780266 	0.0780266 	-0.148426 	
5.31335e-07 	0.00532572 	0.00532572 	0 	
0.000108333 	8.19474e-09 	0.843947 	0.0780266 	0.0780266 	-0.148426 	
5.31335e-07 	0.00532572 	0.00532572 	0 	
0.000111111 	8.14422e-09 	0.843947 	0.0780266 	0.0780266 	-0.148426 	
5.31335e-07 	0.00532572 	0.00532572 	0 	
0.000113889 	8.10394e-09 	0.843947 	0.0780266 	0.0780266 	-0.148426 	
5.31335e-07 	0.00532572 	0.00532572 	0 	
0.000116667 	8.07377e-09 	0.843947 	0.0780266 	0.0780266 	-0.148426 	
5.31335e-07 	0.00532572 	0.00532572 	0 	
0.000119444 	8.05355e-09 	0.843947 	0.0780266 	0.0780266 	-0.148426 	
5.31335e-07 	0.00532572 	0.00532572 	0 	
0.000122222 	8.04308e-09 	0.843947 	0.0780266 	0.0780266 	-0.148426 	
5.31335e-07 	0.00532572 	0.00532572 	0 	
0.000125 	6.45259e-09 	0.843947 	0.0780266 	0.0780266 	-0.148426 	
5.31335e-07 	0.00532572 	0.00532572 	0 	
ZONE T = "t = 0.000149647 [s]" I = 10 SOLUTIONTIME = 1.4964655285358E-04
0.0001 	8.94996e-09 	0.843947 	0.0780266 	0.0780266 	-0.148426 	
7.96975e-07 	0.00532572 	0.00532572 	0 	
0.000102778 	8.87394e-09 	0.843947 	0.0780266 	0.0780266 	-0.148426 	
7.96975e-07 	0.00532572 	0.00532572 	0 	
0.000105556 	8.80639e-09 	0.843947 	0.0780266 	0.0780266 	-0.148426 	
7.96975e-07 	0.00532572 	0.00532572 	0 	
0.000108333 	8.74736e-09 	0.843947 	0.0780266 	0.0780266 	-0.148426 	
7.96975e-07 	0.00532572 	0.00532572 	0 	
0.000111111 	8.69687e-09 	0.843947 	0.0780266 	0.0780266 	-0.148426 	
7.96975e-07 	0.00532572 	0.00532572 	0 	
0.000113889 	8.65494e-09 	0.843947 	0.0780266 	0.0780266 	-0.148426 	
7.96975e-07 	0.00532572 	0.00532572 	0 	
0.000116667 	8.62153e-09 	0.843947 	0.0780266 	0.0780266 	-0.148426 	