TITLE = "Solution on Domain BulkDomain1D_1"
VARIABLES = "x [m]"  
"Vel_axial" 	"MF_sp(ECDMC)" 	"MF_sp(Li+)" 	"MF_sp(PF6-)" 	"Volt(Electroly)" 	"qHeat_accum [J/m3]" 	"qHeat_step [W/m3]" 	"Joule_Lyte [W/m3]" 	"Joule_Solid [W/m3]" 	
ZONE T = "t = 0 [s]" I = 10 SOLUTIONTIME = 0.0000000000000E+00
0.0001 	0 	0.843947 	0.0780266 	0.0780266 	-0.07 	
0 	0.0 	 0.0 	 0.0 	 
0.000102778 	0 	0.843947 	0.0780266 	0.0780266 	-0.07 	
0 	0.0 	 0.0 	 0.0 	 
0.000105556 	0 	0.843947 	0.0780266 	0.0780266 	-0.07 	
0 	0.0 	 0.0 	 0.0 	 
0.000108333 	0 	0.843947 	0.0780266 	0.0780266 	-0.07 	
0 	0.0 	 0.0 	 0.0 	 
0.000111111 	0 	0.843947 	0.0780266 	0.0780266 	-0.07 	
0 	0.0 	 0.0 	 0.0 	 
0.000113889 	0 	0.843947 	0.0780266 	0.0780266 	-0.07 	
0 	0.0 	 0.0 	 0.0 	 
0.000116667 	0 	0.843947 	0.0780266 	0.0780266 	-0.07 	
0 	0.0 	 0.0 	 0.0 	 
0.000119444 	0 	0.843947 	0.0780266 	0.0780266 	-0.07 	
0 	0.0 	 0.0 	 0.0 	 
0.000122222 	0 	0.843947 	0.0780266 	0.0780266 	-0.07 	
0 	0.0 	 0.0 	 0.0 	 
0.000125 	0 	0.843947 	0.0780266 	0.0780266 	-0.07 	
0 	0.0 	 0.0 	 0.0 	 
ZONE T = "t = 1e-08 [s]" I = 10 SOLUTIONTIME = 1.0000000000000E-08
0.0001 	6.12179e-09 	0.843947 	0.0780266 	0.0780266 	-0.12133 	
5.32572e-11 	0.00532572 	0.00532572 	0 	
0.000102778 	6.11545e-09 	0.843947 	0.0780266 	0.0780266 	-0.12133 	
5.32572e-11 	0.00532572 	0.00532572 	0 	
0.000105556 	6.11545e-09 	0.843947 	0.0780266 	0.0780266 	-0.12133 	
5.32572e-11 	0.00532572 	0.00532572 	0 	
0.000108333 	6.11545e-09 	0.843947 	0.0780266 	0.0780266 	-0.12133 	
5.32572e-11 	0.00532572 	0.00532572 	0 	
0.000111111 	6.11545e-09 	0.843947 	0.0780266 	0.0780266 	-0.12133 	
5.32572e-11 	0.00532572 	0.00532572 	0 	
0.000113889 	6.11545e-09 	0.843947 	0.0780266 	0.0780266 	-0.12133 	
5.32572e-11 	0.00532572 	0.00532572 	0 	
0.000116667 	6.11545e-09 	0.843947 	0.0780266 	0.0780266 	-0.12133 	
5.32572e-11 	0.00532572 	0.00532572 	0 	
0.000119444 	6.1155e-09 	0.843947 	0.0780266 	0.0780266 	-0.12133 	
5.32572e-11 	0.00532572 	0.00532572 	0 	
0.000122222 	6.12201e-09 	0.843947 	0.0780266 	0.0780266 	-0.12133 	
5.32572e-11 	0.00532572 	0.00532572 	0 	
0.000125 	5.7765e-09 	0.843947 	0.0780266 	0.0780266 	-0.12133 	
5.32572e-11 	0.00532572 	0.00532572 	0 	
ZONE T = "t = 2e-08 [s]" I = 10 SOLUTIONTIME = 2.0000000000000E-08
0.0001 	6.1276e-09 	0.843947 	0.0780266 	0.0780266 	-0.121329 	
1.06514e-10 	0.00532572 	0.00532572 	0 	
0.000102778 	6.11523e-09 	0.843947 	0.0780266 	0.0780266 	-0.121329 	
1.06514e-10 	0.00532572 	0.00532572 	0 	
0.000105556 	6.11491e-09 	0.843947 	0.0780266 	0.0780266 	-0.121329 	
1.06514e-10 	0.00532572 	0.00532572 	0 	
0.000108333 	6.11491e-09 	0.843947 	0.0780266 	0.0780266 	-0.121329 	
1.06514e-10 	0.00532572 	0.00532572 	0 	
0.000111111 	6.11491e-09 	0.843947 	0.0780266 	0.0780266 	-0.121329 	
1.06514e-10 	0.00532572 	0.00532572 	0 	
0.000113889 	6.11491e-09 	0.843947 	0.0780266 	0.0780266 	-0.121329 	
1.06514e-10 	0.00532572 	0.00532572 	0 	
0.000116667 	6.11491e-09 	0.843947 	0.0780266 	0.0780266 	-0.121329 	
1.06514e-10 	0.00532572 	0.00532572 	0 	
0.000119444 	6.11523e-09 	0.843947 	0.0780266 	0.0780266 	-0.121329 	
1.06514e-10 	0.00532572 	0.00532572 	0 	
0.000122222 	6.12766e-09 	0.843947 	0.0780266 	0.0780266 	-0.121329 	
1.06514e-10 	0.00532572 	0.00532572 	0 	
0.000125 	5.77605e-09 	0.843947 	0.0780266 	0.0780266 	-0.121329 	
1.06514e-10 	0.00532572 	0.00532572 	0 	
ZONE T = "t = 3e-08 [s]" I = 10 SOLUTIONTIME = 3.0000000000000E-08
0.0001 	6.13316e-09 	0.843947 	0.0780266 	0.0780266 	-0.121329 	
1.59772e-10 	0.00532572 	0.00532572 	0 	
0.000102778 	6.11477e-09 	0.843947 	0.0780266 	0.0780266 	-0.121329 	
1.59772e-10 	0.00532572 	0.00532572 	0 	
0.000105556 	6.11434e-09 	0.843947 	0.0780266 	0.0780266 	-0.121329 	
1.59772e-10 	0.00532572 	0.00532572 	0 	
0.000108333 	6.11434e-09 	0.843947 	0.0780266 	0.0780266 	-0.121329 	
1.59772e-10 	0.00532572 	0.00532572 	0 	
0.000111111 	6.11434e-09 	0.843947 	0.0780266 	0.0780266 	-0.121329 	
1.59772e-10 	0.00532572 	0.00532572 	0 	
0.000113889 	6.11434e-09 	0.843947 	0.0780266 	0.0780266 	-0.121329 	
1.59772e-10 	0.00532572 	0.00532572 	0 	
0.000116667 	6.11445e-09 	0.843947 	0.0780266 	0.0780266 	-0.121329 	
1.59772e-10 	0.00532572 	0.00532572 	0 	
0.000119444 	6.11498e-09 	0.843947 	0.0780266 	0.0780266 	-0.121329 	
1.59772e-10 	0.00532572 	0.00532572 	0 	
0.000122222 	6.13322e-09 	0.843947 	0.0780266 	0.0780266 	-0.121329 	
1.59772e-10 	0.00532572 	0.00532572 	0 	
0.000125 	5.77582e-09 	0.843947 	0.0780266 	0.0780266 	-0.121329 	
1.59772e-10 	0.00532572 	0.00532572 	0 	
ZONE T = "t = 4e-08 [s]" I = 10 SOLUTIONTIME = 4.0000000000000E-08
0.0001 	6.14023e-09 	0.843947 	0.0780266 	0.0780266 	-0.121329 	
2.13029e-10 	0.00532572 	0.00532572 	0 	
0.000102778 	6.11628e-09 	0.843947 	0.0780266 	0.0780266 	-0.121329 	
2.13029e-10 	0.00532572 	0.00532572 	0 	
0.000105556 	6.1156e-09 	0.843947 	0.0780266 	0.0780266 	-0.121329 	
2.13029e-10 	0.00532572 	0.00532572 	0 	
0.000108333 	6.1156e-09 	0.843947 	0.0780266 	0.0780266 	-0.121329 	
2.13029e-10 	0.00532572 	0.00532572 	0 	
0.000111111 	6.1156e-09 	0.843947 	0.0780266 	0.0780266 	-0.121329 	
2.13029e-10 	0.00532572 	0.00532572 	0 	
0.000113889 	6.1156e-09 	0.843947 	0.0780266 	0.0780266 	-0.121329 	
2.13029e-10 	0.00532572 	0.00532572 	0 	
0.000116667 	6.11555e-09 	0.843947 	0.0780266 	0.0780266 	-0.121329 	
2.13029e-10 	0.00532572 	0.00532572 	0 	
0.000119444 	6.11619e-09 	0.843947 	0.0780266 	0.0780266 	-0.121329 	
2.13029e-10 	0.00532572 	0.00532572 	0 	
0.000122222 	6.1402e-09 	0.843947 	0.0780266 	0.0780266 	-0.121329 	
2.13029e-10 	0.00532572 	0.00532572 	0 	
0.000125 	5.77696e-09 	0.843947 	0.0780266 	0.0780266 	-0.121329 	
2.13029e-10 	0.00532572 	0.00532572 	0 	
ZONE T = "t = 5.5e-08 [s]" I = 10 SOLUTIONTIME = 5.5000000000000E-08
0.0001 	6.14828e-09 	0.843947 	0.0780266 	0.0780266 	-0.121329 	
2.92915e-10 	0.00532572 	0.00532572 	0 	
0.000102778 	6.11617e-09 	0.843947 	0.0780266 	0.0780266 	-0.121329 	
2.92915e-10 	0.00532572 	0.00532572 	0 	
0.000105556 	6.11479e-09 	0.843947 	0.0780266 	0.0780266 	-0.121329 	
2.92915e-10 	0.00532572 	0.00532572 	0 	
0.000108333 	6.11472e-09 	0.843947 	0.0780266 	0.0780266 	-0.121329 	
2.92915e-10 	0.00532572 	0.00532572 	0 	
0.000111111 	6.11472e-09 	0.843947 	0.0780266 	0.0780266 	-0.121329 	
2.92915e-10 	0.00532572 	0.00532572 	0 	
0.000113889 	6.11472e-09 	0.843947 	0.0780266 	0.0780266 	-0.121329 	
2.92915e-10 	0.00532572 	0.00532572 	0 	
0.000116667 	6.11479e-09 	0.843947 	0.0780266 	0.0780266 	-0.121329 	
2.92915e-10 	0.00532572 	0.00532572 	0 	
0.000119444 	6.11617e-09 	0.843947 	0.0780266 	0.0780266 	-0.121329 	
2.92915e-10 	0.00532572 	0.00532572 	0 	
0.000122222 	6.14825e-09 	0.843947 	0.0780266 	0.0780266 	-0.121329 	
2.92915e-10 	0.00532572 	0.00532572 	0 	
0.000125 	5.77675e-09 	0.843947 	0.0780266 	0.0780266 	-0.121329 	
2.92915e-10 	0.00532572 	0.00532572 	0 	
ZONE T = "t = 7.75e-08 [s]" I = 10 SOLUTIONTIME = 7.7500000000000E-08
0.0001 	6.1608e-09 	0.843947 	0.0780266 	0.0780266 	-0.121329 	
4.12743e-10 	0.00532572 	0.00532572 	0 	
0.000102778 	6.11751e-09 	0.843947 	0.0780266 	0.0780266 	-0.121329 	
4.12743e-10 	0.00532572 	0.00532572 	0 	
0.000105556 	6.11511e-09 	0.843947 	0.0780266 	0.0780266 	-0.121329 	
4.12743e-10 	0.00532572 	0.00532572 	0 	
0.000108333 	6.11504e-09 	0.843947 	0.0780266 	0.0780266 	-0.121329 	
4.12743e-10 	0.00532572 	0.00532572 	0 	
0.000111111 	6.11504e-09 	0.843947 	0.0780266 	0.0780266 	-0.121329 	
4.12743e-10 	0.00532572 	0.00532572 	0 	
0.000113889 	6.11509e-09 	0.843947 	0.0780266 	0.0780266 	-0.121329 	
4.12743e-10 	0.00532572 	0.00532572 	0 	
0.000116667 	6.11518e-09 	0.843947 	0.0780266 	0.0780266 	-0.121329 	
4.12743e-10 	0.00532572 	0.00532572 	0 	
0.000119444 	6.11763e-09 	0.843947 	0.0780266 	0.0780266 	-0.121329 	
4.12743e-10 	0.00532572 	0.00532572 	0 	
0.000122222 	6.16094e-09 	0.843947 	0.0780266 	0.0780266 	-0.121329 	
4.12743e-10 	0.00532572 	0.00532572 	0 	
0.000125 	5.77755e-09 	0.843947 	0.0780266 	0.0780266 	-0.121329 	
4.12743e-10 	0.00532572 	0.00532572 	0 	
ZONE T = "t = 1.1125e-07 [s]" I = 10 SOLUTIONTIME = 1.1125000000000E-07
0.0001 	6.17808e-09 	0.843947 	0.0780266 	0.0780266 	-0.121329 	
5.92486e-10 	0.00532572 	0.00532572 	0 	
0.000102778 	6.11987e-09 	0.843947 	0.0780266 	0.0780266 	-0.121329 	
5.92486e-10 	0.00532572 	0.00532572 	0 	
0.000105556 	6.11526e-09 	0.843947 	0.0780266 	0.0780266 	-0.121329 	
5.92486e-10 	0.00532572 	0.00532572 	0 	
0.000108333 	6.11496e-09 	0.843947 	0.0780266 	0.0780266 	-0.121329 	
5.92486e-10 	0.00532572 	0.00532572 	0 	
0.000111111 	6.11496e-09 	0.843947 	0.0780266 	0.0780266 	-0.121329 	
5.92486e-10 	0.00532572 	0.00532572 	0 	
0.000113889 	6.115e-09 	0.843947 	0.0780266 	0.0780266 	-0.121329 	
5.92486e-10 	0.00532572 	0.00532572 	0 	
0.000116667 	6.11529e-09 	0.843947 	0.0780266 	0.0780266 	-0.121329 	
5.92486e-10 	0.00532572 	0.00532572 	0 	
0.000119444 	6.11992e-09 	0.843947 	0.0780266 	0.0780266 	-0.121329 	
5.92486e-10 	0.00532572 	0.00532572 	0 	
0.000122222 	6.1781e-09 	0.843947 	0.0780266 	0.0780266 	-0.121329 	
5.92486e-10 	0.00532572 	0.00532572 	0 	
0.000125 	5.77838e-09 	0.843947 	0.0780266 	0.0780266 	-0.121329 	
5.92486e-10 	0.00532572 	0.00532572 	0 	
ZONE T = "t = 1.61875e-07 [s]" I = 10 SOLUTIONTIME = 1.6187500000000E-07
0.0001 	6.20136e-09 	0.843947 	0.0780266 	0.0780266 	-0.121329 	
8.62101e-10 	0.00532572 	0.00532572 	0 	
0.000102778 	6.12431e-09 	0.843947 	0.0780266 	0.0780266 	-0.121329 	
8.62101e-10 	0.00532572 	0.00532572 	0 	
0.000105556 	6.11571e-09 	0.843947 	0.0780266 	0.0780266 	-0.121329 	
8.62101e-10 	0.00532572 	0.00532572 	0 	
0.000108333 	6.11496e-09 	0.843947 	0.0780266 	0.0780266 	-0.121329 	
8.62101e-10 	0.00532572 	0.00532572 	0 	
0.000111111 	6.1149e-09 	0.843947 	0.0780266 	0.0780266 	-0.121329 	
8.62101e-10 	0.00532572 	0.00532572 	0 	
0.000113889 	6.11496e-09 	0.843947 	0.0780266 	0.0780266 	-0.121329 	
8.62101e-10 	0.00532572 	0.00532572 	0 	
0.000116667 	6.1157e-09 	0.843947 	0.0780266 	0.0780266 	-0.121329 	
8.62101e-10 	0.00532572 	0.00532572 	0 	
0.000119444 	6.12426e-09 	0.843947 	0.0780266 	0.0780266 	-0.121329 	
8.62101e-10 	0.00532572 	0.00532572 	0 	
0.000122222 	6.20129e-09 	0.843947 	0.0780266 	0.0780266 	-0.121329 	
8.62101e-10 	0.00532572 	0.00532572 	0 	
0.000125 	5.77957e-09 	0.843947 	0.0780266 	0.0780266 	-0.121329 	
8.62101e-10 	0.00532572 	0.00532572 	0 	
ZONE T = "t = 2.37813e-07 [s]" I = 10 SOLUTIONTIME = 2.3781250000000E-07
0.0001 	6.23169e-09 	0.843947 	0.0780266 	0.0780266 	-0.121329 	
1.26652e-09 	0.00532572 	0.00532572 	0 	
0.000102778 	6.13257e-09 	0.843947 	0.0780266 	0.0780266 	-0.121329 	
1.26652e-09 	0.00532572 	0.00532572 	0 	
0.000105556 	6.11709e-09 	0.843947 	0.0780266 	0.0780266 	-0.121329 	
1.26652e-09 	0.00532572 	0.00532572 	0 	
0.000108333 	6.11518e-09 	0.843947 	0.0780266 	0.0780266 	-0.121329 	
1.26652e-09 	0.00532572 	0.00532572 	0 	
0.000111111 	6.115e-09 	0.843947 	0.0780266 	0.0780266 	-0.121329 	
1.26652e-09 	0.00532572 	0.00532572 	0 	
0.000113889 	6.11519e-09 	0.843947 	0.0780266 	0.0780266 	-0.121329 	
1.26652e-09 	0.00532572 	0.00532572 	0 	
0.000116667 	6.11711e-09 	0.843947 	0.0780266 	0.0780266 	-0.121329 	
1.26652e-09 	0.00532572 	0.00532572 	0 	
0.000119444 	6.13259e-09 	0.843947 	0.0780266 	0.0780266 	-0.121329 	
1.26652e-09 	0.00532572 	0.00532572 	0 	
0.000122222 	6.23168e-09 	0.843947 	0.0780266 	0.0780266 	-0.121329 	
1.26652e-09 	0.00532572 	0.00532572 	0 	
0.000125 	5.78174e-09 	0.843947 	0.0780266 	0.0780266 	-0.121329 	
1.26652e-09 	0.00532572 	0.00532572 	0 	
ZONE T = "t = 3.51719e-07 [s]" I = 10 SOLUTIONTIME = 3.5171875000000E-07
0.0001 	6.26914e-09 	0.843947 	0.0780266 	0.0780266 	-0.121329 	
1.87316e-09 	0.00532572 	0.00532572 	0 	
0.000102778 	6.14673e-09 	0.843947 	0.0780266 	0.0780266 	-0.121329 	
1.87316e-09 	0.00532572 	0.00532572 	0 	
0.000105556 	6.12031e-09 	0.843947 	0.0780266 	0.0780266 	-0.121329 	
1.87316e-09 	0.00532572 	0.00532572 	0 	
0.000108333 	6.11574e-09 	0.843947 	0.0780266 	0.0780266 	-0.121329 	
1.87316e-09 	0.00532572 	0.00532572 	0 	
0.000111111 	6.11515e-09 	0.843947 	0.0780266 	0.0780266 	-0.121329 	
1.87316e-09 	0.00532572 	0.00532572 	0 	
0.000113889 	6.11574e-09 	0.843947 	0.0780266 	0.0780266 	-0.121329 	
1.87316e-09 	0.00532572 	0.00532572 	0 	
0.000116667 	6.12031e-09 	0.843947 	0.0780266 	0.0780266 	-0.121329 	
1.87316e-09 	0.00532572 	0.00532572 	0 	
0.000119444 	6.14672e-09 	0.843947 	0.0780266 	0.0780266 	-0.121329 	
1.87316e-09 	0.00532572 	0.00532572 	0 	
0.000122222 	6.26908e-09 	0.843947 	0.0780266 	0.0780266 	-0.121329 	
1.87316e-09 	0.00532572 	0.00532572 	0 	
0.000125 	5.78503e-09 	0.843947 	0.0780266 	0.0780266 	-0.121329 	
1.87316e-09 	0.00532572 	0.00532572 	0 	
ZONE T = "t = 5.22578e-07 [s]" I = 10 SOLUTIONTIME = 5.2257812500000E-07
0.0001 	6.31287e-09 	0.843947 	0.0780266 	0.0780266 	-0.121329 	
2.7831e-09 	0.00532572 	0.00532572 	0 	
0.000102778 	6.16927e-09 	0.843947 	0.0780266 	0.0780266 	-0.121329 	
2.7831e-09 	0.00532572 	0.00532572 	0 	
0.000105556 	6.12741e-09 	0.843947 	0.0780266 	0.0780266 	-0.121329 	
2.7831e-09 	0.00532572 	0.00532572 	0 	
0.000108333 	6.11758e-09 	0.843947 	0.0780266 	0.0780266 	-0.121329 	
2.7831e-09 	0.00532572 	0.00532572 	0 	
0.000111111 	6.11591e-09 	0.843947 	0.0780266 	0.0780266 	-0.121329 	
2.7831e-09 	0.00532572 	0.00532572 	0 	
0.000113889 	6.11757e-09 	0.843947 	0.0780266 	0.0780266 	-0.121329 	
2.7831e-09 	0.00532572 	0.00532572 	0 	
0.000116667 	6.1274e-09 	0.843947 	0.0780266 	0.0780266 	-0.121329 	
2.7831e-09 	0.00532572 	0.00532572 	0 	
0.000119444 	6.16925e-09 	0.843947 	0.0780266 	0.0780266 	-0.121329 	
2.7831e-09 	0.00532572 	0.00532572 	0 	
0.000122222 	6.31279e-09 	0.843947 	0.0780266 	0.0780266 	-0.121329 	
2.7831e-09 	0.00532572 	0.00532572 	0 	
0.000125 	5.79028e-09 	0.843947 	0.0780266 	0.0780266 	-0.121329 	
2.7831e-09 	0.00532572 	0.00532572 	0 	
ZONE T = "t = 7.78867e-07 [s]" I = 10 SOLUTIONTIME = 7.7886718750000E-07
0.0001 	6.36116e-09 	0.843947 	0.0780266 	0.0780266 	-0.121329 	
4.14803e-09 	0.00532572 	0.00532572 	0 	
0.000102778 	6.20196e-09 	0.843947 	0.0780266 	0.0780266 	-0.121329 	
4.14803e-09 	0.00532572 	0.00532572 	0 	
0.000105556 	6.14127e-09 	0.843947 	0.0780266 	0.0780266 	-0.121329 	
4.14803e-09 	0.00532572 	0.00532572 	0 	
0.000108333 	6.12246e-09 	0.843947 	0.0780266 	0.0780266 	-0.121329 	
4.14803e-09 	0.00532572 	0.00532572 	0 	
0.000111111 	6.11849e-09 	0.843947 	0.0780266 	0.0780266 	-0.121329 	
4.14803e-09 	0.00532572 	0.00532572 	0 	
0.000113889 	6.12246e-09 	0.843947 	0.0780266 	0.0780266 	-0.121329 	
4.14803e-09 	0.00532572 	0.00532572 	0 	
0.000116667 	6.14127e-09 	0.843947 	0.0780266 	0.0780266 	-0.121329 	
4.14803e-09 	0.00532572 	0.00532572 	0 	
0.000119444 	6.20193e-09 	0.843947 	0.0780266 	0.0780266 	-0.121329 	
4.14803e-09 	0.00532572 	0.00532572 	0 	
0.000122222 	6.36106e-09 	0.843947 	0.0780266 	0.0780266 	-0.121329 	
4.14803e-09 	0.00532572 	0.00532572 	0 	
0.000125 	5.79854e-09 	0.843947 	0.0780266 	0.0780266 	-0.121329 	
4.14803e-09 	0.00532572 	0.00532572 	0 	
ZONE T = "t = 1.1633e-06 [s]" I = 10 SOLUTIONTIME = 1.1633007812500E-06
0.0001 	6.41241e-09 	0.843947 	0.0780266 	0.0780266 	-0.121329 	
6.19541e-09 	0.00532572 	0.00532572 	0 	
0.000102778 	6.24539e-09 	0.843947 	0.0780266 	0.0780266 	-0.121329 	
6.19541e-09 	0.00532572 	0.00532572 	0 	
0.000105556 	6.1655e-09 	0.843947 	0.0780266 	0.0780266 	-0.121329 	
6.19541e-09 	0.00532572 	0.00532572 	0 	
0.000108333 	6.13418e-09 	0.843947 	0.0780266 	0.0780266 	-0.121329 	
6.19541e-09 	0.00532572 	0.00532572 	0 	
0.000111111 	6.12633e-09 	0.843947 	0.0780266 	0.0780266 	-0.121329 	
6.19541e-09 	0.00532572 	0.00532572 	0 	
0.000113889 	6.13417e-09 	0.843947 	0.0780266 	0.0780266 	-0.121329 	
6.19541e-09 	0.00532572 	0.00532572 	0 	
0.000116667 	6.16548e-09 	0.843947 	0.0780266 	0.0780266 	-0.121329 	
6.19541e-09 	0.00532572 	0.00532572 	0 	
0.000119444 	6.24534e-09 	0.843947 	0.0780266 	0.0780266 	-0.121329 	
6.19541e-09 	0.00532572 	0.00532572 	0 	
0.000122222 	6.4123e-09 	0.843947 	0.0780266 	0.0780266 	-0.121329 	
6.19541e-09 	0.00532572 	0.00532572 	0 	
0.000125 	5.81148e-09 	0.843947 	0.0780266 	0.0780266 	-0.121329 	
6.19541e-09 	0.00532572 	0.00532572 	0 	
ZONE T = "t = 1.73995e-06 [s]" I = 10 SOLUTIONTIME = 1.7399511718750E-06
0.0001 	6.46612e-09 	0.843947 	0.0780266 	0.0780266 	-0.121329 	
9.26649e-09 	0.00532572 	0.00532572 	0 	
0.000102778 	6.2989e-09 	0.843947 	0.0780266 	0.0780266 	-0.121329 	
9.26649e-09 	0.00532572 	0.00532572 	0 	
0.000105556 	6.20329e-09 	0.843947 	0.0780266 	0.0780266 	-0.121329 	
9.26649e-09 	0.00532572 	0.00532572 	0 	
0.000108333 	6.15826e-09 	0.843947 	0.0780266 	0.0780266 	-0.121329 	
9.26649e-09 	0.00532572 	0.00532572 	0 	
0.000111111 	6.14545e-09 	0.843947 	0.0780266 	0.0780266 	-0.121329 	
9.26649e-09 	0.00532572 	0.00532572 	0 	
0.000113889 	6.15824e-09 	0.843947 	0.0780266 	0.0780266 	-0.121329 	
9.26649e-09 	0.00532572 	0.00532572 	0 	
0.000116667 	6.20326e-09 	0.843947 	0.0780266 	0.0780266 	-0.121329 	
9.26649e-09 	0.00532572 	0.00532572 	0 	
0.000119444 	6.29883e-09 	0.843947 	0.0780266 	0.0780266 	-0.121329 	
9.26649e-09 	0.00532572 	0.00532572 	0 	
0.000122222 	6.46599e-09 	0.843947 	0.0780266 	0.0780266 	-0.121329 	
9.26649e-09 	0.00532572 	0.00532572 	0 	
0.000125 	5.83134e-09 	0.843947 	0.0780266 	0.0780266 	-0.121329 	
9.26649e-09 	0.00532572 	0.00532572 	0 	
ZONE T = "t = 2.60493e-06 [s]" I = 10 SOLUTIONTIME = 2.6049267578125E-06
0.0001 	6.52424e-09 	0.843947 	0.0780266 	0.0780266 	-0.121329 	
1.38731e-08 	0.00532572 	0.00532572 	0 	
0.000102778 	6.36262e-09 	0.843947 	0.0780266 	0.0780266 	-0.121329 	
1.38731e-08 	0.00532572 	0.00532572 	0 	
0.000105556 	6.25784e-09 	0.843947 	0.0780266 	0.0780266 	-0.121329 	
1.38731e-08 	0.00532572 	0.00532572 	0 	
0.000108333 	6.20171e-09 	0.843947 	0.0780266 	0.0780266 	-0.121329 	
1.38731e-08 	0.00532572 	0.00532572 	0 	
0.000111111 	6.18435e-09 	0.843947 	0.0780266 	0.0780266 	-0.121329 	
1.38731e-08 	0.00532572 	0.00532572 	0 	
0.000113889 	6.20169e-09 	0.843947 	0.0780266 	0.0780266 	-0.121329 	
1.38731e-08 	0.00532572 	0.00532572 	0 	
0.000116667 	6.25779e-09 	0.843947 	0.0780266 	0.0780266 	-0.121329 	
1.38731e-08 	0.00532572 	0.00532572 	0 	
0.000119444 	6.36252e-09 	0.843947 	0.0780266 	0.0780266 	-0.121329 	
1.38731e-08 	0.00532572 	0.00532572 	0 	
0.000122222 	6.52408e-09 	0.843947 	0.0780266 	0.0780266 	-0.121329 	
1.38731e-08 	0.00532572 	0.00532572 	0 	
0.000125 	5.86127e-09 	0.843947 	0.0780266 	0.0780266 	-0.121329 	
1.38731e-08 	0.00532572 	0.00532572 	0 	
ZONE T = "t = 3.90239e-06 [s]" I = 10 SOLUTIONTIME = 3.9023901367188E-06
0.0001 	6.59173e-09 	0.843947 	0.0780266 	0.0780266 	-0.121329 	
2.0783e-08 	0.00532572 	0.00532572 	0 	
0.000102778 	6.43958e-09 	0.843947 	0.0780266 	0.0780266 	-0.121329 	
2.0783e-08 	0.00532572 	0.00532572 	0 	
0.000105556 	6.33319e-09 	0.843947 	0.0780266 	0.0780266 	-0.121329 	
2.0783e-08 	0.00532572 	0.00532572 	0 	
0.000108333 	6.27161e-09 	0.843947 	0.0780266 	0.0780266 	-0.121329 	
2.0783e-08 	0.00532572 	0.00532572 	0 	
0.000111111 	6.2516e-09 	0.843947 	0.0780266 	0.0780266 	-0.121329 	
2.0783e-08 	0.00532572 	0.00532572 	0 	
0.000113889 	6.27158e-09 	0.843947 	0.0780266 	0.0780266 	-0.121329 	
2.0783e-08 	0.00532572 	0.00532572 	0 	
0.000116667 	6.33312e-09 	0.843947 	0.0780266 	0.0780266 	-0.121329 	
2.0783e-08 	0.00532572 	0.00532572 	0 	
0.000119444 	6.43946e-09 	0.843947 	0.0780266 	0.0780266 	-0.121329 	
2.0783e-08 	0.00532572 	0.00532572 	0 	
0.000122222 	6.59155e-09 	0.843947 	0.0780266 	0.0780266 	-0.121329 	
2.0783e-08 	0.00532572 	0.00532572 	0 	
0.000125 	5.90544e-09 	0.843947 	0.0780266 	0.0780266 	-0.121329 	
2.0783e-08 	0.00532572 	0.00532572 	0 	
ZONE T = "t = 5.84859e-06 [s]" I = 10 SOLUTIONTIME = 5.8485852050781E-06
0.0001 	6.67636e-09 	0.843947 	0.0780266 	0.0780266 	-0.121329 	
3.11479e-08 	0.00532572 	0.00532572 	0 	
0.000102778 	6.53653e-09 	0.843947 	0.0780266 	0.0780266 	-0.121329 	
3.11479e-08 	0.00532572 	0.00532572 	0 	
0.000105556 	6.43515e-09 	0.843947 	0.0780266 	0.0780266 	-0.121329 	
3.11479e-08 	0.00532572 	0.00532572 	0 	
0.000108333 	6.37418e-09 	0.843947 	0.0780266 	0.0780266 	-0.121329 	
3.11479e-08 	0.00532572 	0.00532572 	0 	
0.000111111 	6.35388e-09 	0.843947 	0.0780266 	0.0780266 	-0.121329 	
3.11479e-08 	0.00532572 	0.00532572 	0 	
0.000113889 	6.37414e-09 	0.843947 	0.0780266 	0.0780266 	-0.121329 	
3.11479e-08 	0.00532572 	0.00532572 	0 	
0.000116667 	6.43506e-09 	0.843947 	0.0780266 	0.0780266 	-0.121329 	
3.11479e-08 	0.00532572 	0.00532572 	0 	
0.000119444 	6.53639e-09 	0.843947 	0.0780266 	0.0780266 	-0.121329 	
3.11479e-08 	0.00532572 	0.00532572 	0 	
0.000122222 	6.67616e-09 	0.843947 	0.0780266 	0.0780266 	-0.121329 	
3.11479e-08 	0.00532572 	0.00532572 	0 	
0.000125 	5.96925e-09 	0.843947 	0.0780266 	0.0780266 	-0.121329 	
3.11479e-08 	0.00532572 	0.00532572 	0 	
ZONE T = "t = 8.76788e-06 [s]" I = 10 SOLUTIONTIME = 8.7678778076172E-06
0.0001 	6.78748e-09 	0.843947 	0.0780266 	0.0780266 	-0.121329 	
4.66953e-08 	0.00532572 	0.00532572 	0 	
0.000102778 	6.66244e-09 	0.843947 	0.0780266 	0.0780266 	-0.121329 	
4.66953e-08 	0.00532572 	0.00532572 	0 	
0.000105556 	6.57067e-09 	0.843947 	0.0780266 	0.0780266 	-0.121329 	
4.66953e-08 	0.00532572 	0.00532572 	0 	
0.000108333 	6.51473e-09 	0.843947 	0.0780266 	0.0780266 	-0.121329 	
4.66953e-08 	0.00532572 	0.00532572 	0 	
0.000111111 	6.49593e-09 	0.843947 	0.0780266 	0.0780266 	-0.121329 	
4.66953e-08 	0.00532572 	0.00532572 	0 	
0.000113889 	6.51467e-09 	0.843947 	0.0780266 	0.0780266 	-0.121329 	
4.66953e-08 	0.00532572 	0.00532572 	0 	
0.000116667 	6.57057e-09 	0.843947 	0.0780266 	0.0780266 	-0.121329 	
4.66953e-08 	0.00532572 	0.00532572 	0 	
0.000119444 	6.66227e-09 	0.843947 	0.0780266 	0.0780266 	-0.121329 	
4.66953e-08 	0.00532572 	0.00532572 	0 	
0.000122222 	6.78725e-09 	0.843947 	0.0780266 	0.0780266 	-0.121329 	
4.66953e-08 	0.00532572 	0.00532572 	0 	
0.000125 	6.05947e-09 	0.843947 	0.0780266 	0.0780266 	-0.121329 	
4.66953e-08 	0.00532572 	0.00532572 	0 	
ZONE T = "t = 1.31468e-05 [s]" I = 10 SOLUTIONTIME = 1.3146816711426E-05
0.0001 	6.93439e-09 	0.843947 	0.0780266 	0.0780266 	-0.121329 	
7.00162e-08 	0.00532572 	0.00532572 	0 	
0.000102778 	6.82598e-09 	0.843947 	0.0780266 	0.0780266 	-0.121329 	
7.00162e-08 	0.00532572 	0.00532572 	0 	
0.000105556 	6.74639e-09 	0.843947 	0.0780266 	0.0780266 	-0.121329 	
7.00162e-08 	0.00532572 	0.00532572 	0 	
0.000108333 	6.69777e-09 	0.843947 	0.0780266 	0.0780266 	-0.121329 	
7.00162e-08 	0.00532572 	0.00532572 	0 	
0.000111111 	6.6814e-09 	0.843947 	0.0780266 	0.0780266 	-0.121329 	
7.00162e-08 	0.00532572 	0.00532572 	0 	
0.000113889 	6.6977e-09 	0.843947 	0.0780266 	0.0780266 	-0.121329 	
7.00162e-08 	0.00532572 	0.00532572 	0 	
0.000116667 	6.74627e-09 	0.843947 	0.0780266 	0.0780266 	-0.121329 	
7.00162e-08 	0.00532572 	0.00532572 	0 	
0.000119444 	6.82579e-09 	0.843947 	0.0780266 	0.0780266 	-0.121329 	
7.00162e-08 	0.00532572 	0.00532572 	0 	
0.000122222 	6.93412e-09 	0.843947 	0.0780266 	0.0780266 	-0.121329 	
7.00162e-08 	0.00532572 	0.00532572 	0 	
0.000125 	6.18421e-09 	0.843947 	0.0780266 	0.0780266 	-0.121329 	
7.00162e-08 	0.00532572 	0.00532572 	0 	
ZONE T = "t = 1.97152e-05 [s]" I = 10 SOLUTIONTIME = 1.9715225067139E-05
0.0001 	7.12566e-09 	0.843947 	0.0780266 	0.0780266 	-0.121329 	
1.04998e-07 	0.00532572 	0.00532572 	0 	
0.000102778 	7.03451e-09 	0.843947 	0.0780266 	0.0780266 	-0.121329 	
1.04998e-07 	0.00532572 	0.00532572 	0 	
0.000105556 	6.96787e-09 	0.843947 	0.0780266 	0.0780266 	-0.121329 	
1.04998e-07 	0.00532572 	0.00532572 	0 	
0.000108333 	6.92724e-09 	0.843947 	0.0780266 	0.0780266 	-0.121329 	
1.04998e-07 	0.00532572 	0.00532572 	0 	
0.000111111 	6.91356e-09 	0.843947 	0.0780266 	0.0780266 	-0.121329 	
1.04998e-07 	0.00532572 	0.00532572 	0 	
0.000113889 	6.92716e-09 	0.843947 	0.0780266 	0.0780266 	-0.121329 	
1.04998e-07 	0.00532572 	0.00532572 	0 	
0.000116667 	6.96772e-09 	0.843947 	0.0780266 	0.0780266 	-0.121329 	
1.04998e-07 	0.00532572 	0.00532572 	0 	
0.000119444 	7.03429e-09 	0.843947 	0.0780266 	0.0780266 	-0.121329 	
1.04998e-07 	0.00532572 	0.00532572 	0 	
0.000122222 	7.12535e-09 	0.843947 	0.0780266 	0.0780266 	-0.121329 	
1.04998e-07 	0.00532572 	0.00532572 	0 	
0.000125 	6.35269e-09 	0.843947 	0.0780266 	0.0780266 	-0.121329 	
1.04998e-07 	0.00532572 	0.00532572 	0 	
ZONE T = "t = 2.95678e-05 [s]" I = 10 SOLUTIONTIME = 2.9567837600708E-05
0.0001 	7.36965e-09 	0.843947 	0.0780266 	0.0780266 	-0.121329 	
1.5747e-07 	0.00532572 	0.00532572 	0 	
0.000102778 	7.29486e-09 	0.843947 	0.0780266 	0.0780266 	-0.121329 	
1.5747e-07 	0.00532572 	0.00532572 	0 	
0.000105556 	7.24046e-09 	0.843947 	0.0780266 	0.0780266 	-0.121329 	
1.5747e-07 	0.00532572 	0.00532572 	0 	
0.000108333 	7.2074e-09 	0.843947 	0.0780266 	0.0780266 	-0.121329 	
1.5747e-07 	0.00532572 	0.00532572 	0 	
0.000111111 	7.19629e-09 	0.843947 	0.0780266 	0.0780266 	-0.121329 	
1.5747e-07 	0.00532572 	0.00532572 	0 	
0.000113889 	7.20732e-09 	0.843947 	0.0780266 	0.0780266 	-0.121329 	
1.5747e-07 	0.00532572 	0.00532572 	0 	
0.000116667 	7.24029e-09 	0.843947 	0.0780266 	0.0780266 	-0.121329 	
1.5747e-07 	0.00532572 	0.00532572 	0 	
0.000119444 	7.2946e-09 	0.843947 	0.0780266 	0.0780266 	-0.121329 	
1.5747e-07 	0.00532572 	0.00532572 	0 	
0.000122222 	7.36931e-09 	0.843947 	0.0780266 	0.0780266 	-0.121329 	
1.5747e-07 	0.00532572 	0.00532572 	0 	
0.000125 	6.57495e-09 	0.843947 	0.0780266 	0.0780266 	-0.121329 	
1.5747e-07 	0.00532572 	0.00532572 	0 	
ZONE T = "t = 4.43468e-05 [s]" I = 10 SOLUTIONTIME = 4.4346756401062E-05
0.0001 	7.67577e-09 	0.843947 	0.0780266 	0.0780266 	-0.121329 	
2.36178e-07 	0.00532572 	0.00532572 	0 	
0.000102778 	7.61523e-09 	0.843947 	0.0780266 	0.0780266 	-0.121329 	
2.36178e-07 	0.00532572 	0.00532572 	0 	
0.000105556 	7.57141e-09 	0.843947 	0.0780266 	0.0780266 	-0.121329 	
2.36178e-07 	0.00532572 	0.00532572 	0 	
0.000108333 	7.54488e-09 	0.843947 	0.0780266 	0.0780266 	-0.121329 	
2.36178e-07 	0.00532572 	0.00532572 	0 	
0.000111111 	7.53597e-09 	0.843947 	0.0780266 	0.0780266 	-0.121329 	
2.36178e-07 	0.00532572 	0.00532572 	0 	
0.000113889 	7.54479e-09 	0.843947 	0.0780266 	0.0780266 	-0.121329 	
2.36178e-07 	0.00532572 	0.00532572 	0 	
0.000116667 	7.57122e-09 	0.843947 	0.0780266 	0.0780266 	-0.121329 	
2.36178e-07 	0.00532572 	0.00532572 	0 	
0.000119444 	7.61494e-09 	0.843947 	0.0780266 	0.0780266 	-0.121329 	
2.36178e-07 	0.00532572 	0.00532572 	0 	
0.000122222 	7.67538e-09 	0.843947 	0.0780266 	0.0780266 	-0.121329 	
2.36178e-07 	0.00532572 	0.00532572 	0 	
0.000125 	6.8619e-09 	0.843947 	0.0780266 	0.0780266 	-0.121329 	
2.36178e-07 	0.00532572 	0.00532572 	0 	
ZONE T = "t = 6.65151e-05 [s]" I = 10 SOLUTIONTIME = 6.6515134601593E-05
0.0001 	8.05578e-09 	0.843947 	0.0780266 	0.0780266 	-0.121329 	
3.54241e-07 	0.00532572 	0.00532572 	0 	
0.000102778 	8.00695e-09 	0.843947 	0.0780266 	0.0780266 	-0.121329 	
3.54241e-07 	0.00532572 	0.00532572 	0 	
0.000105556 	7.97176e-09 	0.843947 	0.0780266 	0.0780266 	-0.121329 	
3.54241e-07 	0.00532572 	0.00532572 	0 	
0.000108333 	7.9505e-09 	0.843947 	0.0780266 	0.0780266 	-0.121329 	
3.54241e-07 	0.00532572 	0.00532572 	0 	
0.000111111 	7.94336e-09 	0.843947 	0.0780266 	0.0780266 	-0.121329 	
3.54241e-07 	0.00532572 	0.00532572 	0 	
0.000113889 	7.9504e-09 	0.843947 	0.0780266 	0.0780266 	-0.121329 	
3.54241e-07 	0.00532572 	0.00532572 	0 	
0.000116667 	7.97155e-09 	0.843947 	0.0780266 	0.0780266 	-0.121329 	
3.54241e-07 	0.00532572 	0.00532572 	0 	
0.000119444 	8.00664e-09 	0.843947 	0.0780266 	0.0780266 	-0.121329 	
3.54241e-07 	0.00532572 	0.00532572 	0 	
0.000122222 	8.05537e-09 	0.843947 	0.0780266 	0.0780266 	-0.121329 	
3.54241e-07 	0.00532572 	0.00532572 	0 	
0.000125 	7.22597e-09 	0.843947 	0.0780266 	0.0780266 	-0.121329 	
3.54241e-07 	0.00532572 	0.00532572 	0 	
ZONE T = "t = 9.97677e-05 [s]" I = 10 SOLUTIONTIME = 9.9767701902390E-05
0.0001 	8.52482e-09 	0.843947 	0.0780266 	0.0780266 	-0.121329 	
5.31335e-07 	0.00532572 	0.00532572 	0 	
0.000102778 	8.48535e-09 	0.843947 	0.0780266 	0.0780266 	-0.121329 	
5.31335e-07 	0.00532572 	0.00532572 	0 	
0.000105556 	8.45699e-09 	0.843947 	0.0780266 	0.0780266 	-0.121329 	
5.31335e-07 	0.00532572 	0.00532572 	0 	
0.000108333 	8.43989e-09 	0.843947 	0.0780266 	0.0780266 	-0.121329 	
5.31335e-07 	0.00532572 	0.00532572 	0 	
0.000111111 	8.43414e-09 	0.843947 	0.0780266 	0.0780266 	-0.121329 	
5.31335e-07 	0.00532572 	0.00532572 	0 	
0.000113889 	8.43978e-09 	0.843947 	0.0780266 	0.0780266 	-0.121329 	
5.31335e-07 	0.00532572 	0.00532572 	0 	
0.000116667 	8.45678e-09 	0.843947 	0.0780266 	0.0780266 	-0.121329 	
5.31335e-07 	0.00532572 	0.00532572 	0 	
0.000119444 	8.48503e-09 	0.843947 	0.0780266 	0.0780266 	-0.121329 	
5.31335e-07 	0.00532572 	0.00532572 	0 	
0.000122222 	8.52439e-09 	0.843947 	0.0780266 	0.0780266 	-0.121329 	
5.31335e-07 	0.00532572 	0.00532572 	0 	
0.000125 	7.6821e-09 	0.843947 	0.0780266 	0.0780266 	-0.121329 	
5.31335e-07 	0.00532572 	0.00532572 	0 	
ZONE T = "t = 0.000149647 [s]" I = 10 SOLUTIONTIME = 1.4964655285358E-04
0.0001 	9.10181e-09 	0.843947 	0.0780266 	0.0780266 	-0.121329 	
7.96975e-07 	0.00532572 	0.00532572 	0 	
0.000102778 	9.06982e-09 	0.843947 	0.0780266 	0.0780266 	-0.121329 	
7.96975e-07 	0.00532572 	0.00532572 	0 	
0.000105556 	9.04687e-09 	0.843947 	0.0780266 	0.0780266 	-0.121329 	
7.96975e-07 	0.00532572 	0.00532572 	0 	
0.000108333 	9.03304e-09 	0.843947 	0.0780266 	0.0780266 	-0.121329 	
7.96975e-07 	0.00532572 	0.00532572 	0 	
0.000111111 	9.02839e-09 	0.843947 	0.0780266 	0.0780266 	-0.121329 	
7.96975e-07 	0.00532572 	0.00532572 	0 	
0.000113889 	9.03294e-09 	0.843947 	0.0780266 	0.0780266 	-0.121329 	
7.96975e-07 	0.00532572 	0.00532572 	0 	
0.000116667 	9.04666e-09 	0.843947 	0.0780266 	0.0780266 	-0.121329 	