TITLE = "Solution on Domain BulkDomain1D_2"
VARIABLES = "x [m]"  
"Vel_axial(0)" 	"MF_sp(ECDMC)" 	"MF_sp(Li+)" 	"MF_sp(PF6-)" 	"Volt(Electroly)" 	"Volt(CathodeVo)" 	
"Potential Drop Electrode-Electrolyte [V]" 	"Surf_0 Equilibrium Potential Drop Electrode-Electrolyte [V]" 	"Overpotential_0 [V]" 	"Current Source [A/m^2]" 	"Li+ flux [kmol/m^2/s]" 	"Electrolyte Current [A/m^2]" 	"Electrode Current [A/m^2]" 	
"Capacity discharged [A-s]" 	"Depth of discharge [-]" 	"Capacity remaining [A-s]" 	"Initial capacity [A-s]" 	"Porosity []" 	"Surface Area [m2/m2] (area per area)" 	"Specific current (per particle area) [A/m^2]" 	"Control volume thickness [m]" 	
"Moles LiCoO2 [mol/m^2] (per electrode area)" 	"Moles CoO2 [mol/m^2] (per electrode area)" 	

ZONE T = "t = 0 [s]" I = 10 SOLUTIONTIME = 0.0000000000000E+00
0.760128 	0 	0.92 	0.04 	0.04 	-0.07 	3.8 	
0 	0 	0 	0 	0 	65.7346 	0 	
0 	0 	0 	0 	0.3 	2.21667 	-59.3094 	1.05556e-05 	
0.000166326 	0.000337691 	
0.760149 	0 	0.92 	0.04 	0.04 	-0.07 	3.8 	
0 	0 	0 	0 	0 	0 	-0 	
0 	0 	0 	0 	0.3 	4.43333 	-59.3094 	2.11111e-05 	
0.000332651 	0.000675383 	
0.76017 	0 	0.92 	0.04 	0.04 	-0.07 	3.8 	
0 	0 	0 	0 	0 	0 	-0 	
0 	0 	0 	0 	0.3 	4.43333 	-59.3094 	2.11111e-05 	
0.000332651 	0.000675383 	
0.760191 	0 	0.92 	0.04 	0.04 	-0.07 	3.8 	
0 	0 	0 	0 	0 	0 	-0 	
0 	0 	0 	0 	0.3 	4.43333 	-59.3094 	2.11111e-05 	
0.000332651 	0.000675383 	
0.760212 	0 	0.92 	0.04 	0.04 	-0.07 	3.8 	
0 	0 	0 	0 	0 	0 	-0 	
0 	0 	0 	0 	0.3 	4.43333 	-59.3094 	2.11111e-05 	
0.000332651 	0.000675383 	
0.760234 	0 	0.92 	0.04 	0.04 	-0.07 	3.8 	
0 	0 	0 	0 	0 	0 	-0 	
0 	0 	0 	0 	0.3 	4.43333 	-59.3094 	2.11111e-05 	
0.000332651 	0.000675383 	
0.760255 	0 	0.92 	0.04 	0.04 	-0.07 	3.8 	
0 	0 	0 	0 	0 	0 	-0 	
0 	0 	0 	0 	0.3 	4.43333 	-59.3094 	2.11111e-05 	
0.000332651 	0.000675383 	
0.760276 	0 	0.92 	0.04 	0.04 	-0.07 	3.8 	
0 	0 	0 	0 	0 	0 	-0 	
0 	0 	0 	0 	0.3 	4.43333 	-59.3094 	2.11111e-05 	
0.000332651 	0.000675383 	
0.760297 	0 	0.92 	0.04 	0.04 	-0.07 	3.8 	
0 	0 	0 	0 	0 	0 	-0 	
0 	0 	0 	0 	0.3 	4.43333 	-59.3094 	2.11111e-05 	
0.000332651 	0.000675383 	
0.760318 	0 	0.92 	0.04 	0.04 	-0.07 	3.8 	
0 	0 	0 	0 	0 	0 	65.7346 	
0 	0 	0 	0 	0.3 	2.21667 	-59.3094 	1.05556e-05 	
0.000166326 	0.000337691 	
ZONE T = "t = 1e-08 [s]" I = 10 SOLUTIONTIME = 1.0000000000000E-08
0.760128 	1.31167e-08 	0.92 	0.04 	0.04 	-0.0154328 	4.1214 	
3.87 	4.15572 	-0.285721 	-131.469 	-0 	19.4446 	0.555446 	
-0 	16048 	81.6609 	121.882 	0.3 	2.21667 	-0.501165 	1.05556e-05 	
0.000166326 	0.000337691 	
0.760149 	1.15739e-08 	0.92 	0.04 	0.04 	-0.0154329 	4.1214 	
3.87 	4.15572 	-0.285721 	-262.938 	-0 	17.7782 	2.22179 	
-0 	32096 	163.322 	243.764 	0.3 	4.43333 	-0.501168 	2.11111e-05 	
0.000332651 	0.000675383 	
0.76017 	1.0031e-08 	0.92 	0.04 	0.04 	-0.0154329 	4.1214 	
3.87 	4.15572 	-0.285721 	-262.938 	-0 	15.5564 	4.44361 	
-0 	32096 	163.322 	243.764 	0.3 	4.43333 	-0.501178 	2.11111e-05 	
0.000332651 	0.000675383 	
0.760191 	8.4881e-09 	0.92 	0.04 	0.04 	-0.015433 	4.12139 	
3.87 	4.15572 	-0.285721 	-262.938 	-0 	13.3345 	6.6655 	
-0 	32096 	163.322 	243.764 	0.3 	4.43333 	-0.501196 	2.11111e-05 	
0.000332651 	0.000675383 	
0.760212 	6.94511e-09 	0.92 	0.04 	0.04 	-0.015433 	4.12139 	
3.87 	4.15572 	-0.285721 	-262.938 	-0 	11.1125 	8.88748 	
-0 	32096 	163.322 	243.764 	0.3 	4.43333 	-0.501222 	2.11111e-05 	
0.000332651 	0.000675383 	
0.760234 	5.40201e-09 	0.92 	0.04 	0.04 	-0.015433 	4.12139 	
3.87 	4.15572 	-0.285721 	-262.938 	-0 	8.89041 	11.1096 	
-0 	32096 	163.322 	243.764 	0.3 	4.43333 	-0.501255 	2.11111e-05 	
0.000332651 	0.000675383 	
0.760255 	3.85878e-09 	0.92 	0.04 	0.04 	-0.015433 	4.12139 	
3.87 	4.15572 	-0.285721 	-262.938 	-0 	6.66814 	13.3319 	
-0 	32096 	163.322 	243.764 	0.3 	4.43333 	-0.501295 	2.11111e-05 	
0.000332651 	0.000675383 	
0.760276 	2.31541e-09 	0.92 	0.04 	0.04 	-0.0154331 	4.12139 	
3.87 	4.15572 	-0.285721 	-262.938 	-0 	4.44567 	15.5543 	
-0 	32096 	163.322 	243.764 	0.3 	4.43333 	-0.501344 	2.11111e-05 	
0.000332651 	0.000675383 	
0.760297 	7.71869e-10 	0.92 	0.04 	0.04 	-0.0154331 	4.12138 	
3.87 	4.15572 	-0.285721 	-262.938 	-0 	2.22297 	17.777 	
-0 	32096 	163.322 	243.764 	0.3 	4.43333 	-0.501399 	2.11111e-05 	
0.000332651 	0.000675383 	
0.760318 	0 	0.92 	0.04 	0.04 	-0.0154331 	4.12138 	
3.87 	4.15572 	-0.285721 	-131.469 	-0 	0.555777 	19.4442 	
-0 	16048 	81.6609 	121.882 	0.3 	2.21667 	-0.501463 	1.05556e-05 	
0.000166326 	0.000337691 	
ZONE T = "t = 2e-08 [s]" I = 10 SOLUTIONTIME = 2.0000000000000E-08
0.760128 	1.31167e-08 	0.92 	0.04 	0.04 	0.00228323 	4.10906 	
4.13683 	4.15572 	-0.0188916 	-1.11092 	9.78872e-08 	19.447 	0.555465 	
2.78429e-11 	16048 	81.6609 	121.882 	0.3 	2.21667 	-0.503439 	1.05556e-05 	
0.000166326 	0.000337691 	
0.760149 	1.15738e-08 	0.92 	0.04 	0.04 	0.00228318 	4.10906 	
4.13683 	4.15572 	-0.0188918 	-2.22184 	8.63722e-08 	17.7781 	2.22187 	
5.5686e-11 	32096 	163.322 	243.764 	0.3 	4.43333 	-0.503441 	2.11111e-05 	
0.000332651 	0.000675383 	
0.76017 	1.00309e-08 	0.92 	0.04 	0.04 	0.00228313 	4.10906 	
4.13683 	4.15572 	-0.0188924 	-2.22189 	7.48583e-08 	15.5562 	4.44376 	
5.56872e-11 	32096 	163.322 	243.764 	0.3 	4.43333 	-0.50345 	2.11111e-05 	
0.000332651 	0.000675383 	
0.760191 	8.48794e-09 	0.92 	0.04 	0.04 	0.00228309 	4.10906 	
4.13683 	4.15572 	-0.0188936 	-2.22197 	6.3344e-08 	13.3343 	6.6657 	
5.56892e-11 	32096 	163.322 	243.764 	0.3 	4.43333 	-0.503465 	2.11111e-05 	
0.000332651 	0.000675383 	
0.760212 	6.94493e-09 	0.92 	0.04 	0.04 	0.00228305 	4.10906 	
4.13683 	4.15572 	-0.0188952 	-2.22208 	5.18291e-08 	11.1123 	8.88772 	
5.5692e-11 	32096 	163.322 	243.764 	0.3 	4.43333 	-0.503486 	2.11111e-05 	
0.000332651 	0.000675383 	
0.760234 	5.40182e-09 	0.92 	0.04 	0.04 	0.00228303 	4.10906 	
4.13682 	4.15572 	-0.0188973 	-2.22223 	4.03135e-08 	8.89015 	11.1098 	
5.56957e-11 	32096 	163.322 	243.764 	0.3 	4.43333 	-0.503514 	2.11111e-05 	
0.000332651 	0.000675383 	
0.760255 	3.85862e-09 	0.92 	0.04 	0.04 	0.002283 	4.10905 	
4.13682 	4.15572 	-0.0188998 	-2.22241 	2.87969e-08 	6.66789 	13.3321 	
5.57002e-11 	32096 	163.322 	243.764 	0.3 	4.43333 	-0.503548 	2.11111e-05 	
0.000332651 	0.000675383 	
0.760276 	2.31529e-09 	0.92 	0.04 	0.04 	0.00228299 	4.10905 	
4.13682 	4.15572 	-0.0189029 	-2.22262 	1.72792e-08 	4.44546 	15.5545 	
5.57056e-11 	32096 	163.322 	243.764 	0.3 	4.43333 	-0.503588 	2.11111e-05 	
0.000332651 	0.000675383 	
0.760297 	7.71816e-10 	0.92 	0.04 	0.04 	0.00228298 	4.10905 	
4.13681 	4.15572 	-0.0189064 	-2.22287 	5.76022e-09 	2.22284 	17.7772 	
5.57118e-11 	32096 	163.322 	243.764 	0.3 	4.43333 	-0.503634 	2.11111e-05 	
0.000332651 	0.000675383 	
0.760318 	0 	0.92 	0.04 	0.04 	0.00228297 	4.10904 	
4.13681 	4.15572 	-0.0189103 	-1.11158 	5.76022e-09 	0.555739 	19.4468 	
2.78594e-11 	16048 	81.6609 	121.882 	0.3 	2.21667 	-0.503687 	1.05556e-05 	
0.000166326 	0.000337691 	
ZONE T = "t = 3e-08 [s]" I = 10 SOLUTIONTIME = 3.0000000000000E-08
0.760128 	1.31167e-08 	0.92 	0.04 	0.04 	0.00228331 	4.10892 	
4.10678 	4.15572 	-0.048942 	-1.11596 	9.78883e-08 	19.4491 	0.555465 	
5.58121e-11 	16048 	81.6609 	121.882 	0.3 	2.21667 	-0.505331 	1.05556e-05 	
0.000166326 	0.000337691 	
0.760149 	1.15738e-08 	0.92 	0.04 	0.04 	0.00228326 	4.10892 	
4.10678 	4.15572 	-0.0489422 	-2.23192 	8.63717e-08 	17.7781 	2.22187 	
1.11625e-10 	32096 	163.322 	243.764 	0.3 	4.43333 	-0.505334 	2.11111e-05 	
0.000332651 	0.000675383 	
0.76017 	1.00309e-08 	0.92 	0.04 	0.04 	0.00228321 	4.10892 	
4.10678 	4.15572 	-0.0489428 	-2.23196 	7.48574e-08 	15.5562 	4.44376 	
1.11627e-10 	32096 	163.322 	243.764 	0.3 	4.43333 	-0.505343 	2.11111e-05 	
0.000332651 	0.000675383 	
0.760191 	8.48794e-09 	0.92 	0.04 	0.04 	0.00228317 	4.10892 	
4.10678 	4.15572 	-0.048944 	-2.23203 	6.33429e-08 	13.3343 	6.6657 	
1.11631e-10 	32096 	163.322 	243.764 	0.3 	4.43333 	-0.505358 	2.11111e-05 	
0.000332651 	0.000675383 	
0.760212 	6.94492e-09 	0.92 	0.04 	0.04 	0.00228313 	4.10892 	
4.10678 	4.15572 	-0.0489456 	-2.23212 	5.18278e-08 	11.1123 	8.88772 	
1.11636e-10 	32096 	163.322 	243.764 	0.3 	4.43333 	-0.505379 	2.11111e-05 	
0.000332651 	0.000675383 	
0.760234 	5.40182e-09 	0.92 	0.04 	0.04 	0.0022831 	4.10891 	
4.10677 	4.15572 	-0.0489477 	-2.23224 	4.03121e-08 	8.89015 	11.1099 	
1.11642e-10 	32096 	163.322 	243.764 	0.3 	4.43333 	-0.505406 	2.11111e-05 	
0.000332651 	0.000675383 	
0.760255 	3.85862e-09 	0.92 	0.04 	0.04 	0.00228308 	4.10891 	
4.10677 	4.15572 	-0.0489502 	-2.23239 	2.87956e-08 	6.66788 	13.3321 	
1.11651e-10 	32096 	163.322 	243.764 	0.3 	4.43333 	-0.50544 	2.11111e-05 	
0.000332651 	0.000675383 	
0.760276 	2.31529e-09 	0.92 	0.04 	0.04 	0.00228307 	4.10891 	
4.10677 	4.15572 	-0.0489532 	-2.23257 	1.72783e-08 	4.44546 	15.5545 	
1.11661e-10 	32096 	163.322 	243.764 	0.3 	4.43333 	-0.505481 	2.11111e-05 	
0.000332651 	0.000675383 	
0.760297 	7.71816e-10 	0.92 	0.04 	0.04 	0.00228306 	4.1089 	
4.10676 	4.15572 	-0.0489568 	-2.23278 	5.75982e-09 	2.22284 	17.7772 	
1.11672e-10 	32096 	163.322 	243.764 	0.3 	4.43333 	-0.505527 	2.11111e-05 	
0.000332651 	0.000675383 	
0.760318 	0 	0.92 	0.04 	0.04 	0.00228305 	4.1089 	
4.10676 	4.15572 	-0.0489607 	-1.11651 	5.75982e-09 	0.555738 	19.4489 	
5.58424e-11 	16048 	81.6609 	121.882 	0.3 	2.21667 	-0.50558 	1.05556e-05 	
0.000166326 	0.000337691 	
ZONE T = "t = 3.5e-08 [s]" I = 10 SOLUTIONTIME = 3.5000000000000E-08
0.760128 	1.31167e-08 	0.92 	0.04 	0.04 	0.0022833 	4.10923 	
4.10664 	4.15572 	-0.049085 	-1.12015 	9.78896e-08 	19.4445 	0.555465 	
8.38864e-11 	16048 	81.6609 	121.882 	0.3 	2.21667 	-0.501171 	1.05556e-05 	
0.000166326 	0.000337691 	
0.760149 	1.15738e-08 	0.92 	0.04 	0.04 	0.00228325 	4.10923 	
4.10664 	4.15572 	-0.0490851 	-2.24031 	8.63717e-08 	17.7781 	2.22186 	
1.67774e-10 	32096 	163.322 	243.764 	0.3 	4.43333 	-0.501174 	2.11111e-05 	
0.000332651 	0.000675383 	
0.76017 	1.00309e-08 	0.92 	0.04 	0.04 	0.0022832 	4.10923 	
4.10664 	4.15572 	-0.0490858 	-2.24035 	7.48574e-08 	15.5562 	4.44375 	
1.67777e-10 	32096 	163.322 	243.764 	0.3 	4.43333 	-0.501182 	2.11111e-05 	
0.000332651 	0.000675383 	
0.760191 	8.48795e-09 	0.92 	0.04 	0.04 	0.00228316 	4.10923 	
4.10663 	4.15572 	-0.0490869 	-2.24042 	6.33429e-08 	13.3343 	6.6657 	
1.67782e-10 	32096 	163.322 	243.764 	0.3 	4.43333 	-0.501197 	2.11111e-05 	
0.000332651 	0.000675383 	
0.760212 	6.94493e-09 	0.92 	0.04 	0.04 	0.00228312 	4.10923 	
4.10663 	4.15572 	-0.0490885 	-2.24051 	5.18278e-08 	11.1123 	8.88772 	
1.6779e-10 	32096 	163.322 	243.764 	0.3 	4.43333 	-0.501218 	2.11111e-05 	
0.000332651 	0.000675383 	
0.760234 	5.40182e-09 	0.92 	0.04 	0.04 	0.00228309 	4.10923 	
4.10663 	4.15572 	-0.0490906 	-2.24064 	4.03121e-08 	8.89015 	11.1098 	
1.67799e-10 	32096 	163.322 	243.764 	0.3 	4.43333 	-0.501246 	2.11111e-05 	
0.000332651 	0.000675383 	
0.760255 	3.85862e-09 	0.92 	0.04 	0.04 	0.00228307 	4.10923 	
4.10663 	4.15572 	-0.0490932 	-2.24079 	2.87956e-08 	6.66789 	13.3321 	
1.67812e-10 	32096 	163.322 	243.764 	0.3 	4.43333 	-0.50128 	2.11111e-05 	
0.000332651 	0.000675383 	
0.760276 	2.31529e-09 	0.92 	0.04 	0.04 	0.00228306 	4.10922 	
4.10662 	4.15572 	-0.0490962 	-2.24096 	1.72783e-08 	4.44546 	15.5545 	
1.67826e-10 	32096 	163.322 	243.764 	0.3 	4.43333 	-0.50132 	2.11111e-05 	
0.000332651 	0.000675383 	
0.760297 	7.71817e-10 	0.92 	0.04 	0.04 	0.00228305 	4.10922 	
4.10662 	4.15572 	-0.0490997 	-2.24117 	5.75982e-09 	2.22284 	17.7772 	
1.67842e-10 	32096 	163.322 	243.764 	0.3 	4.43333 	-0.501366 	2.11111e-05 	
0.000332651 	0.000675383 	
0.760318 	0 	0.92 	0.04 	0.04 	0.00228304 	4.10921 	
4.10662 	4.15572 	-0.0491037 	-1.1207 	5.75982e-09 	0.555739 	19.4443 	
8.39306e-11 	16048 	81.6609 	121.882 	0.3 	2.21667 	-0.501419 	1.05556e-05 	
0.000166326 	0.000337691 	
ZONE T = "t = 4e-08 [s]" I = 10 SOLUTIONTIME = 4.0000000000000E-08
0.760128 	1.31167e-08 	0.92 	0.04 	0.04 	0.0022833 	4.10923 	
4.10695 	4.15572 	-0.0487703 	-1.11093 	9.78903e-08 	19.4445 	0.555465 	
9.7808e-11 	16048 	81.6609 	121.882 	0.3 	2.21667 	-0.501171 	1.05556e-05 	
0.000166326 	0.000337691 	
0.760149 	1.15738e-08 	0.92 	0.04 	0.04 	0.00228325 	4.10923 	
4.10695 	4.15572 	-0.0487705 	-2.22187 	8.63717e-08 	17.7781 	2.22186 	
1.95617e-10 	32096 	163.322 	243.764 	0.3 	4.43333 	-0.501174 	2.11111e-05 	
0.000332651 	0.000675383 	
0.76017 	1.00309e-08 	0.92 	0.04 	0.04 	0.0022832 	4.10923 	
4.10695 	4.15572 	-0.0487711 	-2.22191 	7.48574e-08 	15.5562 	4.44375 	
1.95621e-10 	32096 	163.322 	243.764 	0.3 	4.43333 	-0.501182 	2.11111e-05 	
0.000332651 	0.000675383 	
0.760191 	8.48795e-09 	0.92 	0.04 	0.04 	0.00228316 	4.10923 	
4.10695 	4.15572 	-0.0487723 	-2.22197 	6.33429e-08 	13.3343 	6.6657 	
1.95627e-10 	32096 	163.322 	243.764 	0.3 	4.43333 	-0.501197 	2.11111e-05 	
0.000332651 	0.000675383 	
0.760212 	6.94493e-09 	0.92 	0.04 	0.04 	0.00228312 	4.10923 	
4.10695 	4.15572 	-0.0487739 	-2.22207 	5.18278e-08 	11.1123 	8.88772 	
1.95636e-10 	32096 	163.322 	243.764 	0.3 	4.43333 	-0.501218 	2.11111e-05 	
0.000332651 	0.000675383 	
0.760234 	5.40182e-09 	0.92 	0.04 	0.04 	0.00228309 	4.10923 	
4.10694 	4.15572 	-0.048776 	-2.22219 	4.03121e-08 	8.89015 	11.1098 	
1.95647e-10 	32096 	163.322 	243.764 	0.3 	4.43333 	-0.501246 	2.11111e-05 	
0.000332651 	0.000675383 	
0.760255 	3.85862e-09 	0.92 	0.04 	0.04 	0.00228307 	4.10923 	
4.10694 	4.15572 	-0.0487785 	-2.22234 	2.87957e-08 	6.66789 	13.3321 	
1.95661e-10 	32096 	163.322 	243.764 	0.3 	4.43333 	-0.50128 	2.11111e-05 	
0.000332651 	0.000675383 	
0.760276 	2.31529e-09 	0.92 	0.04 	0.04 	0.00228306 	4.10922 	
4.10694 	4.15572 	-0.0487816 	-2.22252 	1.72783e-08 	4.44546 	15.5545 	
1.95677e-10 	32096 	163.322 	243.764 	0.3 	4.43333 	-0.50132 	2.11111e-05 	
0.000332651 	0.000675383 	
0.760297 	7.71817e-10 	0.92 	0.04 	0.04 	0.00228305 	4.10922 	
4.10694 	4.15572 	-0.0487851 	-2.22272 	5.75983e-09 	2.22284 	17.7772 	
1.95696e-10 	32096 	163.322 	243.764 	0.3 	4.43333 	-0.501366 	2.11111e-05 	
0.000332651 	0.000675383 	
0.760318 	0 	0.92 	0.04 	0.04 	0.00228304 	4.10921 	
4.10693 	4.15572 	-0.048789 	-1.11148 	5.75983e-09 	0.555739 	19.4443 	
9.7859e-11 	16048 	81.6609 	121.882 	0.3 	2.21667 	-0.501419 	1.05556e-05 	
0.000166326 	0.000337691 	
ZONE T = "t = 4.5e-08 [s]" I = 10 SOLUTIONTIME = 4.5000000000000E-08
0.760128 	1.31167e-08 	0.92 	0.04 	0.04 	0.0022833 	4.10923 	
4.10695 	4.15572 	-0.0487703 	-1.11093 	9.78909e-08 	19.4445 	0.555465 	
1.1173e-10 	16048 	81.6609 	121.882 	0.3 	2.21667 	-0.501171 	1.05556e-05 	
0.000166326 	0.000337691 	
0.760149 	1.15738e-08 	0.92 	0.04 	0.04 	0.00228325 	4.10923 	
4.10695 	4.15572 	-0.0487705 	-2.22187 	8.63717e-08 	17.7781 	2.22186 	
2.2346e-10 	32096 	163.322 	243.764 	0.3 	4.43333 	-0.501174 	2.11111e-05 	
0.000332651 	0.000675383 	
0.76017 	1.00309e-08 	0.92 	0.04 	0.04 	0.0022832 	4.10923 	
4.10695 	4.15572 	-0.0487711 	-2.22191 	7.48574e-08 	15.5562 	4.44375 	
2.23464e-10 	32096 	163.322 	243.764 	0.3 	4.43333 	-0.501182 	2.11111e-05 	
0.000332651 	0.000675383 	
0.760191 	8.48795e-09 	0.92 	0.04 	0.04 	0.00228316 	4.10923 	
4.10695 	4.15572 	-0.0487723 	-2.22197 	6.33429e-08 	13.3343 	6.6657 	
2.23471e-10 	32096 	163.322 	243.764 	0.3 	4.43333 	-0.501197 	2.11111e-05 	
0.000332651 	0.000675383 	
0.760212 	6.94493e-09 	0.92 	0.04 	0.04 	0.00228312 	4.10923 	
4.10695 	4.15572 	-0.0487739 	-2.22207 	5.18278e-08 	11.1123 	8.88772 	
2.23481e-10 	32096 	163.322 	243.764 	0.3 	4.43333 	-0.501218 	2.11111e-05 	
0.000332651 	0.000675383 	
0.760234 	5.40182e-09 	0.92 	0.04 	0.04 	0.00228309 	4.10923 	
4.10694 	4.15572 	-0.048776 	-2.22219 	4.03121e-08 	8.89015 	11.1098 	
2.23494e-10 	32096 	163.322 	243.764 	0.3 	4.43333 	-0.501246 	2.11111e-05 	
0.000332651 	0.000675383 	
0.760255 	3.85862e-09 	0.92 	0.04 	0.04 	0.00228307 	4.10923 	
4.10694 	4.15572 	-0.0487785 	-2.22234 	2.87957e-08 	6.66789 	13.3321 	
2.2351e-10 	32096 	163.322 	243.764 	0.3 	4.43333 	-0.50128 	2.11111e-05 	
0.000332651 	0.000675383 	
0.760276 	2.31529e-09 	0.92 	0.04 	0.04 	0.00228306 	4.10922 	
4.10694 	4.15572 	-0.0487816 	-2.22252 	1.72783e-08 	4.44546 	15.5545 	
2.23529e-10 	32096 	163.322 	243.764 	0.3 	4.43333 	-0.50132 	2.11111e-05 	
0.000332651 	0.000675383 	
0.760297 	7.71817e-10 	0.92 	0.04 	0.04 	0.00228305 	4.10922 	
4.10694 	4.15572 	-0.0487851 	-2.22272 	5.75983e-09 	2.22284 	17.7772 	
2.2355e-10 	32096 	163.322 	243.764 	0.3 	4.43333 	-0.501366 	2.11111e-05 	
0.000332651 	0.000675383 	
0.760318 	0 	0.92 	0.04 	0.04 	0.00228304 	4.10921 	
4.10693 	4.15572 	-0.048789 	-1.11148 	5.75983e-09 	0.555739 	19.4443 	
1.11788e-10 	16048 	81.6609 	121.882 	0.3 	2.21667 	-0.501419 	1.05556e-05 	
0.000166326 	0.000337691 	
ZONE T = "t = 5.25e-08 [s]" I = 10 SOLUTIONTIME = 5.2500000000000E-08
0.760128 	1.31167e-08 	0.92 	0.04 	0.04 	0.0022833 	4.10923 	
4.10695 	4.15572 	-0.0487703 	-1.11093 	9.78916e-08 	19.4445 	0.555465 	
1.25651e-10 	16048 	81.6609 	121.882 	0.3 	2.21667 	-0.501171 	1.05556e-05 	
0.000166326 	0.000337691 	
0.760149 	1.15738e-08 	0.92 	0.04 	0.04 	0.00228325 	4.10923 	
4.10695 	4.15572 	-0.0487705 	-2.22187 	8.63717e-08 	17.7781 	2.22186 	
2.51304e-10 	32096 	163.322 	243.764 	0.3 	4.43333 	-0.501174 	2.11111e-05 	
0.000332651 	0.000675383 	
0.76017 	1.00309e-08 	0.92 	0.04 	0.04 	0.0022832 	4.10923 	
4.10695 	4.15572 	-0.0487711 	-2.22191 	7.48574e-08 	15.5562 	4.44375 	
2.51308e-10 	32096 	163.322 	243.764 	0.3 	4.43333 	-0.501182 	2.11111e-05 	
0.000332651 	0.000675383 	
0.760191 	8.48795e-09 	0.92 	0.04 	0.04 	0.00228316 	4.10923 	
4.10695 	4.15572 	-0.0487723 	-2.22197 	6.33429e-08 	13.3343 	6.6657 	
2.51316e-10 	32096 	163.322 	243.764 	0.3 	4.43333 	-0.501197 	2.11111e-05 	
0.000332651 	0.000675383 	
0.760212 	6.94493e-09 	0.92 	0.04 	0.04 	0.00228312 	4.10923 	
4.10695 	4.15572 	-0.0487739 	-2.22207 	5.18278e-08 	11.1123 	8.88772 	
2.51327e-10 	32096 	163.322 	243.764 	0.3 	4.43333 	-0.501218 	2.11111e-05 	
0.000332651 	0.000675383 	
0.760234 	5.40182e-09 	0.92 	0.04 	0.04 	0.00228309 	4.10923 	
4.10694 	4.15572 	-0.048776 	-2.22219 	4.03121e-08 	8.89015 	11.1098 	
2.51342e-10 	32096 	163.322 	243.764 	0.3 	4.43333 	-0.501246 	2.11111e-05 	
0.000332651 	0.000675383 	
0.760255 	3.85862e-09 	0.92 	0.04 	0.04 	0.00228307 	4.10923 	
4.10694 	4.15572 	-0.0487785 	-2.22234 	2.87957e-08 	6.66789 	13.3321 	
2.51359e-10 	32096 	163.322 	243.764 	0.3 	4.43333 	-0.50128 	2.11111e-05 	
0.000332651 	0.000675383 	
0.760276 	2.31529e-09 	0.92 	0.04 	0.04 	0.00228306 	4.10922 	
4.10694 	4.15572 	-0.0487816 	-2.22252 	1.72783e-08 	4.44546 	15.5545 	
2.5138e-10 	32096 	163.322 	243.764 	0.3 	4.43333 	-0.50132 	2.11111e-05 	
0.000332651 	0.000675383 	
0.760297 	7.71817e-10 	0.92 	0.04 	0.04 	0.00228305 	4.10922 	
4.10694 	4.15572 	-0.0487851 	-2.22272 	5.75983e-09 	2.22284 	17.7772 	
2.51404e-10 	32096 	163.322 	243.764 	0.3 	4.43333 	-0.501366 	2.11111e-05 	
0.000332651 	0.000675383 	
0.760318 	0 	0.92 	0.04 	0.04 	0.00228304 	4.10921 	
4.10693 	4.15572 	-0.048789 	-1.11148 	5.75983e-09 	0.555739 	19.4443 	
1.25716e-10 	16048 	81.6609 	121.882 	0.3 	2.21667 	-0.501419 	1.05556e-05 	
0.000166326 	0.000337691 	
ZONE T = "t = 6.375e-08 [s]" I = 10 SOLUTIONTIME = 6.3750000000000E-08
0.760128 	1.31167e-08 	0.92 	0.04 	0.04 	0.0022833 	4.10923 	
4.10695 	4.15572 	-0.0487703 	-1.11093 	9.78925e-08 	19.4445 	0.555465 	
1.46534e-10 	16048 	81.6609 	121.882 	0.3 	2.21667 	-0.501171 	1.05556e-05 	
0.000166326 	0.000337691 	
0.760149 	1.15738e-08 	0.92 	0.04 	0.04 	0.00228325 	4.10923 	
4.10695 	4.15572 	-0.0487705 	-2.22187 	8.63717e-08 	17.7781 	2.22186 	
2.93069e-10 	32096 	163.322 	243.764 	0.3 	4.43333 	-0.501174 	2.11111e-05 	
0.000332651 	0.000675383 	
0.76017 	1.00309e-08 	0.92 	0.04 	0.04 	0.0022832 	4.10923 	
4.10695 	4.15572 	-0.0487711 	-2.22191 	7.48574e-08 	15.5562 	4.44375 	
2.93074e-10 	32096 	163.322 	243.764 	0.3 	4.43333 	-0.501182 	2.11111e-05 	
0.000332651 	0.000675383 	
0.760191 	8.48795e-09 	0.92 	0.04 	0.04 	0.00228316 	4.10923 	
4.10695 	4.15572 	-0.0487723 	-2.22197 	6.33429e-08 	13.3343 	6.6657 	
2.93083e-10 	32096 	163.322 	243.764 	0.3 	4.43333 	-0.501197 	2.11111e-05 	
0.000332651 	0.000675383 	
0.760212 	6.94493e-09 	0.92 	0.04 	0.04 	0.00228312 	4.10923 	
4.10695 	4.15572 	-0.0487739 	-2.22207 	5.18278e-08 	11.1123 	8.88772 	
2.93096e-10 	32096 	163.322 	243.764 	0.3 	4.43333 	-0.501218 	2.11111e-05 	
0.000332651 	0.000675383 	
0.760234 	5.40182e-09 	0.92 	0.04 	0.04 	0.00228309 	4.10923 	
4.10694 	4.15572 	-0.048776 	-2.22219 	4.03121e-08 	8.89015 	11.1098 	
2.93113e-10 	32096 	163.322 	243.764 	0.3 	4.43333 	-0.501246 	2.11111e-05 	
0.000332651 	0.000675383 	
0.760255 	3.85862e-09 	0.92 	0.04 	0.04 	0.00228307 	4.10923 	
4.10694 	4.15572 	-0.0487785 	-2.22234 	2.87957e-08 	6.66789 	13.3321 	
2.93133e-10 	32096 	163.322 	243.764 	0.3 	4.43333 	-0.50128 	2.11111e-05 	
0.000332651 	0.000675383 	
0.760276 	2.31529e-09 	0.92 	0.04 	0.04 	0.00228306 	4.10922 	
4.10694 	4.15572 	-0.0487816 	-2.22252 	1.72783e-08 	4.44546 	15.5545 	
2.93157e-10 	32096 	163.322 	243.764 	0.3 	4.43333 	-0.50132 	2.11111e-05 	
0.000332651 	0.000675383 	
0.760297 	7.71817e-10 	0.92 	0.04 	0.04 	0.00228305 	4.10922 	
4.10694 	4.15572 	-0.0487851 	-2.22272 	5.75983e-09 	2.22284 	17.7772 	
2.93186e-10 	32096 	163.322 	243.764 	0.3 	4.43333 	-0.501366 	2.11111e-05 	
0.000332651 	0.000675383 	
0.760318 	0 	0.92 	0.04 	0.04 	0.00228304 	4.10921 	
4.10693 	4.15572 	-0.048789 	-1.11148 	5.75983e-09 	0.555739 	19.4443 	
1.46609e-10 	16048 	81.6609 	121.882 	0.3 	2.21667 	-0.501419 	1.05556e-05 	
0.000166326 	0.000337691 	
ZONE T = "t = 8.0625e-08 [s]" I = 10 SOLUTIONTIME = 8.0625000000000E-08
0.760128 	1.31167e-08 	0.92 	0.04 	0.04 	0.0022833 	4.10923 	
4.10695 	4.15572 	-0.0487703 	-1.11093 	9.7894e-08 	19.4445 	0.555465 	
1.77857e-10 	16048 	81.6609 	121.882 	0.3 	2.21667 	-0.501171 	1.05556e-05 	
0.000166326 	0.000337691 	
0.760149 	1.15738e-08 	0.92 	0.04 	0.04 	0.00228325 	4.10923 	
4.10695 	4.15572 	-0.0487705 	-2.22187 	8.63717e-08 	17.7781 	2.22186 	
3.55716e-10 	32096 	163.322 	243.764 	0.3 	4.43333 	-0.501174 	2.11111e-05 	
0.000332651 	0.000675383 	
0.76017 	1.00309e-08 	0.92 	0.04 	0.04 	0.0022832 	4.10923 	
4.10695 	4.15572 	-0.0487711 	-2.22191 	7.48574e-08 	15.5562 	4.44375 	
3.55723e-10 	32096 	163.322 	243.764 	0.3 	4.43333 	-0.501182 	2.11111e-05 	
0.000332651 	0.000675383 	
0.760191 	8.48795e-09 	0.92 	0.04 	0.04 	0.00228316 	4.10923 	
4.10695 	4.15572 	-0.0487723 	-2.22197 	6.33429e-08 	13.3343 	6.6657 	
3.55734e-10 	32096 	163.322 	243.764 	0.3 	4.43333 	-0.501197 	2.11111e-05 	
0.000332651 	0.000675383 	
0.760212 	6.94493e-09 	0.92 	0.04 	0.04 	0.00228312 	4.10923 	
4.10695 	4.15572 	-0.0487739 	-2.22207 	5.18278e-08 	11.1123 	8.88772 	
3.55749e-10 	32096 	163.322 	243.764 	0.3 	4.43333 	-0.501218 	2.11111e-05 	
0.000332651 	0.000675383 	
0.760234 	5.40182e-09 	0.92 	0.04 	0.04 	0.00228309 	4.10923 	
4.10694 	4.15572 	-0.048776 	-2.22219 	4.03121e-08 	8.89015 	11.1098 	
3.55769e-10 	32096 	163.322 	243.764 	0.3 	4.43333 	-0.501246 	2.11111e-05 	
0.000332651 	0.000675383 	
0.760255 	3.85862e-09 	0.92 	0.04 	0.04 	0.00228307 	4.10923 	
4.10694 	4.15572 	-0.0487785 	-2.22234 	2.87957e-08 	6.66789 	13.3321 	
3.55794e-10 	32096 	163.322 	243.764 	0.3 	4.43333 	-0.50128 	2.11111e-05 	
0.000332651 	0.000675383 	
0.760276 	2.31529e-09 	0.92 	0.04 	0.04 	0.00228306 	4.10922 	
4.10694 	4.15572 	-0.0487816 	-2.22252 	1.72783e-08 	4.44546 	15.5545 	
3.55823e-10 	32096 	163.322 	243.764 	0.3 	4.43333 	-0.50132 	2.11111e-05 	
0.000332651 	0.000675383 	
0.760297 	7.71817e-10 	0.92 	0.04 	0.04 	0.00228305 	4.10922 	
4.10694 	4.15572 	-0.0487851 	-2.22272 	5.75983e-09 	2.22284 	17.7772 	
3.55857e-10 	32096 	163.322 	243.764 	0.3 	4.43333 	-0.501366 	2.11111e-05 	
0.000332651 	0.000675383 	
0.760318 	0 	0.92 	0.04 	0.04 	0.00228304 	4.10921 	
4.10693 	4.15572 	-0.048789 	-1.11148 	5.75983e-09 	0.555739 	19.4443 	
1.77948e-10 	16048 	81.6609 	121.882 	0.3 	2.21667 	-0.501419 	1.05556e-05 	
0.000166326 	0.000337691 	
ZONE T = "t = 1.05938e-07 [s]" I = 10 SOLUTIONTIME = 1.0593750000000E-07
0.760128 	1.31167e-08 	0.92 	0.04 	0.04 	0.0022833 	4.10923 	
4.10695 	4.15572 	-0.0487703 	-1.11093 	9.78962e-08 	19.4445 	0.555465 	
2.24843e-10 	16048 	81.6609 	121.882 	0.3 	2.21667 	-0.501171 	1.05556e-05 	
0.000166326 	0.000337691 	
0.760149 	1.15738e-08 	0.92 	0.04 	0.04 	0.00228325 	4.10923 	
4.10695 	4.15572 	-0.0487705 	-2.22187 	8.63717e-08 	17.7781 	2.22186 	
4.49688e-10 	32096 	163.322 	243.764 	0.3 	4.43333 	-0.501174 	2.11111e-05 	
0.000332651 	0.000675383 	
0.76017 	1.00309e-08 	0.92 	0.04 	0.04 	0.0022832 	4.10923 	
4.10695 	4.15572 	-0.0487711 	-2.22191 	7.48574e-08 	15.5562 	4.44375 	
4.49696e-10 	32096 	163.322 	243.764 	0.3 	4.43333 	-0.501182 	2.11111e-05 	
0.000332651 	0.000675383 	
0.760191 	8.48795e-09 	0.92 	0.04 	0.04 	0.00228316 	4.10923 	
4.10695 	4.15572 	-0.0487723 	-2.22197 	6.33429e-08 	13.3343 	6.6657 	
4.49709e-10 	32096 	163.322 	243.764 	0.3 	4.43333 	-0.501197 	2.11111e-05 	
0.000332651 	0.000675383 	
0.760212 	6.94493e-09 	0.92 	0.04 	0.04 	0.00228312 	4.10923 	
4.10695 	4.15572 	-0.0487739 	-2.22207 	5.18278e-08 	11.1123 	8.88772 	
4.49729e-10 	32096 	163.322 	243.764 	0.3 	4.43333 	-0.501218 	2.11111e-05 	
0.000332651 	0.000675383 	
0.760234 	5.40182e-09 	0.92 	0.04 	0.04 	0.00228309 	4.10923 	
4.10694 	4.15572 	-0.048776 	-2.22219 	4.03121e-08 	8.89015 	11.1098 	
4.49754e-10 	32096 	163.322 	243.764 	0.3 	4.43333 	-0.501246 	2.11111e-05 	
0.000332651 	0.000675383 	
0.760255 	3.85862e-09 	0.92 	0.04 	0.04 	0.00228307 	4.10923 	
4.10694 	4.15572 	-0.0487785 	-2.22234 	2.87957e-08 	6.66789 	13.3321 	
4.49785e-10 	32096 	163.322 	243.764 	0.3 	4.43333 	-0.50128 	2.11111e-05 	
0.000332651 	0.000675383 	
0.760276 	2.31529e-09 	0.92 	0.04 	0.04 	0.00228306 	4.10922 	
4.10694 	4.15572 	-0.0487816 	-2.22252 	1.72783e-08 	4.44546 	15.5545 	
4.49822e-10 	32096 	163.322 	243.764 	0.3 	4.43333 	-0.50132 	2.11111e-05 	
0.000332651 	0.000675383 	
0.760297 	7.71817e-10 	0.92 	0.04 	0.04 	0.00228305 	4.10922 	
4.10694 	4.15572 	-0.0487851 	-2.22272 	5.75983e-09 	2.22284 	17.7772 	
4.49865e-10 	32096 	163.322 	243.764 	0.3 	4.43333 	-0.501366 	2.11111e-05 	
0.000332651 	0.000675383 	
0.760318 	0 	0.92 	0.04 	0.04 	0.00228304 	4.10921 	
4.10693 	4.15572 	-0.048789 	-1.11148 	5.75983e-09 	0.555739 	19.4443 	
2.24956e-10 	16048 	81.6609 	121.882 	0.3 	2.21667 	-0.501419 	1.05556e-05 	
0.000166326 	0.000337691 	
ZONE T = "t = 1.43906e-07 [s]" I = 10 SOLUTIONTIME = 1.4390625000000E-07
0.760128 	1.31167e-08 	0.92 	0.04 	0.04 	0.0022833 	4.10923 	
4.10695 	4.15572 	-0.0487703 	-1.11093 	9.78995e-08 	19.4445 	0.555465 	
2.95321e-10 	16048 	81.6609 	121.882 	0.3 	2.21667 	-0.501171 	1.05556e-05 	
0.000166326 	0.000337691 	
0.760149 	1.15738e-08 	0.92 	0.04 	0.04 	0.00228325 	4.10923 	
4.10695 	4.15572 	-0.0487705 	-2.22187 	8.63717e-08 	17.7781 	2.22186 	
5.90645e-10 	32096 	163.322 	243.764 	0.3 	4.43333 	-0.501174 	2.11111e-05 	
0.000332651 	0.000675383 	
0.76017 	1.00309e-08 	0.92 	0.04 	0.04 	0.0022832 	4.10923 	
4.10695 	4.15572 	-0.0487711 	-2.22191 	7.48574e-08 	15.5562 	4.44375 	
5.90655e-10 	32096 	163.322 	243.764 	0.3 	4.43333 	-0.501182 	2.11111e-05 	
0.000332651 	0.000675383 	
0.760191 	8.48795e-09 	0.92 	0.04 	0.04 	0.00228316 	4.10923 	
4.10695 	4.15572 	-0.0487723 	-2.22197 	6.33429e-08 	13.3343 	6.6657 	
5.90673e-10 	32096 	163.322 	243.764 	0.3 	4.43333 	-0.501197 	2.11111e-05 	
0.000332651 	0.000675383 	
0.760212 	6.94493e-09 	0.92 	0.04 	0.04 	0.00228312 	4.10923 	
4.10695 	4.15572 	-0.0487739 	-2.22207 	5.18278e-08 	11.1123 	8.88772 	
5.90699e-10 	32096 	163.322 	243.764 	0.3 	4.43333 	-0.501218 	2.11111e-05 	
0.000332651 	0.000675383 	
0.760234 	5.40182e-09 	0.92 	0.04 	0.04 	0.00228309 	4.10923 	
4.10694 	4.15572 	-0.048776 	-2.22219 	4.03121e-08 	8.89015 	11.1098 	
5.90732e-10 	32096 	163.322 	243.764 	0.3 	4.43333 	-0.501246 	2.11111e-05 	
0.000332651 	0.000675383 	
0.760255 	3.85862e-09 	0.92 	0.04 	0.04 	0.00228307 	4.10923 	
4.10694 	4.15572 	-0.0487785 	-2.22234 	2.87957e-08 	6.66789 	13.3321 	
5.90772e-10 	32096 	163.322 	243.764 	0.3 	4.43333 	-0.50128 	2.11111e-05 	
0.000332651 	0.000675383 	
0.760276 	2.31529e-09 	0.92 	0.04 	0.04 	0.00228306 	4.10922 	
4.10694 	4.15572 	-0.0487816 	-2.22252 	1.72783e-08 	4.44546 	15.5545 	
5.9082e-10 	32096 	163.322 	243.764 	0.3 	4.43333 	-0.50132 	2.11111e-05 	
0.000332651 	0.000675383 	
0.760297 	7.71817e-10 	0.92 	0.04 	0.04 	0.00228305 	4.10922 	
4.10694 	4.15572 	-0.0487851 	-2.22272 	5.75983e-09 	2.22284 	17.7772 	
5.90876e-10 	32096 	163.322 	243.764 	0.3 	4.43333 	-0.501366 	2.11111e-05 	
0.000332651 	0.000675383 	
0.760318 	0 	0.92 	0.04 	0.04 	0.00228304 	4.10921 	
4.10693 	4.15572 	-0.048789 	-1.11148 	5.75983e-09 	0.555739 	19.4443 	
2.95469e-10 	16048 	81.6609 	121.882 	0.3 	2.21667 	-0.501419 	1.05556e-05 	
0.000166326 	0.000337691 	
ZONE T = "t = 2.00859e-07 [s]" I = 10 SOLUTIONTIME = 2.0085937500000E-07
0.760128 	1.31167e-08 	0.92 	0.04 	0.04 	0.0022833 	4.10923 	
4.10695 	4.15572 	-0.0487703 	-1.11093 	9.79044e-08 	19.4445 	0.555465 	
4.01038e-10 	16048 	81.6609 	121.882 	0.3 	2.21667 	-0.501171 	1.05556e-05 	
0.000166326 	0.000337691 	
0.760149 	1.15738e-08 	0.92 	0.04 	0.04 	0.00228325 	4.10923 	
4.10695 	4.15572 	-0.0487705 	-2.22187 	8.63717e-08 	17.7781 	2.22186 	
8.0208e-10 	32096 	163.322 	243.764 	0.3 	4.43333 	-0.501174 	2.11111e-05 	
0.000332651 	0.000675383 	
0.76017 	1.00309e-08 	0.92 	0.04 	0.04 	0.0022832 	4.10923 	
4.10695 	4.15572 	-0.0487711 	-2.22191 	7.48574e-08 	15.5562 	4.44375 	
8.02094e-10 	32096 	163.322 	243.764 	0.3 	4.43333 	-0.501182 	2.11111e-05 	
0.000332651 	0.000675383 	
0.760191 	8.48795e-09 	0.92 	0.04 	0.04 	0.00228316 	4.10923 	
4.10695 	4.15572 	-0.0487723 	-2.22197 	6.33429e-08 	13.3343 	6.6657 	
8.02119e-10 	32096 	163.322 	243.764 	0.3 	4.43333 	-0.501197 	2.11111e-05 	
0.000332651 	0.000675383 	
0.760212 	6.94493e-09 	0.92 	0.04 	0.04 	0.00228312 	4.10923 	