TITLE = "Solution on Domain BulkDomain1D_1"
VARIABLES = "x [m]"  
"Vel_axial" 	"MF_sp(ECDMC)" 	"MF_sp(Li+)" 	"MF_sp(PF6-)" 	"Volt(Electroly)" 	"Porosity []" 	"Control volume thickness [m]" 	"volFrac MgO(S) []" 	"qHeat_accum [J/m3]" 	"qHeat_step [W/m3]" 	"Joule_Lyte [W/m3]" 	"Joule_Solid [W/m3]" 	
ZONE T = "SEP , 0.0000E+00", I = 10, SOLUTIONTIME = 0.000000E+00
ZONETYPE = ORDERED
DATAPACKING = BLOCK
STRANDID = 2
 1.0000000000000E-04  1.0277777777778E-04  1.0555555555556E-04  1.0833333333333E-04  1.1111111111111E-04  1.1388888888889E-04  1.1666666666667E-04  1.1944444444444E-04  1.2222222222222E-04  1.2500000000000E-04 
 0.0000000000000E+00  0.0000000000000E+00  0.0000000000000E+00  0.0000000000000E+00  0.0000000000000E+00  0.0000000000000E+00  0.0000000000000E+00  0.0000000000000E+00  0.0000000000000E+00  0.0000000000000E+00 
 8.4394680000000E-01  8.4394680000000E-01  8.4394680000000E-01  8.4394680000000E-01  8.4394680000000E-01  8.4394680000000E-01  8.4394680000000E-01  8.4394680000000E-01  8.4394680000000E-01  8.4394680000000E-01 
 7.8026600000000E-02  7.8026600000000E-02  7.8026600000000E-02  7.8026600000000E-02  7.8026600000000E-02  7.8026600000000E-02  7.8026600000000E-02  7.8026600000000E-02  7.8026600000000E-02  7.8026600000000E-02 
 7.8026600000000E-02  7.8026600000000E-02  7.8026600000000E-02  7.8026600000000E-02  7.8026600000000E-02  7.8026600000000E-02  7.8026600000000E-02  7.8026600000000E-02  7.8026600000000E-02  7.8026600000000E-02 
-7.0000000000000E-02 -7.0000000000000E-02 -7.0000000000000E-02 -7.0000000000000E-02 -7.0000000000000E-02 -7.0000000000000E-02 -7.0000000000000E-02 -7.0000000000000E-02 -7.0000000000000E-02 -7.0000000000000E-02 
 8.0000000000000E-01  8.0000000000000E-01  8.0000000000000E-01  8.0000000000000E-01  8.0000000000000E-01  8.0000000000000E-01  8.0000000000000E-01  8.0000000000000E-01  8.0000000000000E-01  8.0000000000000E-01 
 1.3888888888889E-06  2.7777777777778E-06  2.7777777777778E-06  2.7777777777778E-06  2.7777777777778E-06  2.7777777777778E-06  2.7777777777778E-06  2.7777777777778E-06  2.7777777777778E-06  1.3888888888889E-06 
 2.0000000000000E-01  2.0000000000000E-01  2.0000000000000E-01  2.0000000000000E-01  2.0000000000000E-01  2.0000000000000E-01  2.0000000000000E-01  2.0000000000000E-01  2.0000000000000E-01  2.0000000000000E-01 
 0.0000000000000E+00  0.0000000000000E+00  0.0000000000000E+00  0.0000000000000E+00  0.0000000000000E+00  0.0000000000000E+00  0.0000000000000E+00  0.0000000000000E+00  0.0000000000000E+00  0.0000000000000E+00 
 0.0000000000000E+00  0.0000000000000E+00  0.0000000000000E+00  0.0000000000000E+00  0.0000000000000E+00  0.0000000000000E+00  0.0000000000000E+00  0.0000000000000E+00  0.0000000000000E+00  0.0000000000000E+00 
 0.0000000000000E+00  0.0000000000000E+00  0.0000000000000E+00  0.0000000000000E+00  0.0000000000000E+00  0.0000000000000E+00  0.0000000000000E+00  0.0000000000000E+00  0.0000000000000E+00  0.0000000000000E+00 
 0.0000000000000E+00  0.0000000000000E+00  0.0000000000000E+00  0.0000000000000E+00  0.0000000000000E+00  0.0000000000000E+00  0.0000000000000E+00  0.0000000000000E+00  0.0000000000000E+00  0.0000000000000E+00 
ZONE T = "SEP , 1.0000E-08", I = 10, SOLUTIONTIME = 1.000000E-08
ZONETYPE = ORDERED
DATAPACKING = BLOCK
STRANDID = 2
 1.0000000000000E-04  1.0277777777778E-04  1.0555555555556E-04  1.0833333333333E-04  1.1111111111111E-04  1.1388888888889E-04  1.1666666666667E-04  1.1944444444444E-04  1.2222222222222E-04  1.2500000000000E-04 
 6.1203711492528E-09  6.1154031161017E-09  6.1154040354141E-09  6.1154033839448E-09  6.1154033685593E-09  6.1154033751548E-09  6.1154040023202E-09  6.1154276908313E-09  6.1205553106866E-09  5.7763986966273E-09 
 8.4394679999730E-01  8.4394679999997E-01  8.4394680000000E-01  8.4394680000000E-01  8.4394680000000E-01  8.4394680000000E-01  8.4394680000000E-01  8.4394680000000E-01  8.4394680000003E-01  8.4394680000270E-01 
 7.8026600001352E-02  7.8026600000015E-02  7.8026600000000E-02  7.8026600000000E-02  7.8026600000000E-02  7.8026600000000E-02  7.8026600000000E-02  7.8026600000000E-02  7.8026599999985E-02  7.8026599998648E-02 
 7.8026600001352E-02  7.8026600000015E-02  7.8026600000000E-02  7.8026600000000E-02  7.8026600000000E-02  7.8026600000000E-02  7.8026600000000E-02  7.8026600000000E-02  7.8026599999985E-02  7.8026599998648E-02 
-1.2133013861437E-01 -1.2133013964805E-01 -1.2133014068184E-01 -1.2133014171563E-01 -1.2133014274931E-01 -1.2133014378310E-01 -1.2133014481678E-01 -1.2133014585057E-01 -1.2133014688426E-01 -1.2133014791805E-01 
 8.0000000000000E-01  8.0000000000000E-01  8.0000000000000E-01  8.0000000000000E-01  8.0000000000000E-01  8.0000000000000E-01  8.0000000000000E-01  8.0000000000000E-01  8.0000000000000E-01  8.0000000000000E-01 
 1.3888888888889E-06  2.7777777777778E-06  2.7777777777778E-06  2.7777777777778E-06  2.7777777777778E-06  2.7777777777778E-06  2.7777777777778E-06  2.7777777777778E-06  2.7777777777778E-06  1.3888888888889E-06 
 2.0000000000000E-01  2.0000000000000E-01  2.0000000000000E-01  2.0000000000000E-01  2.0000000000000E-01  2.0000000000000E-01  2.0000000000000E-01  2.0000000000000E-01  2.0000000000000E-01  2.0000000000000E-01 
 7.4420889199185E-11  7.4428688933749E-11  7.4436840405053E-11  7.4429040670126E-11  7.4428673944637E-11  7.4428688931813E-11  7.4428792853840E-11  7.4428975697641E-11  7.4428936726500E-11  7.4436588592586E-11 
 7.4420889199185E-03  7.4428688933749E-03  7.4436840405053E-03  7.4429040670126E-03  7.4428673944637E-03  7.4428688931813E-03  7.4428792853840E-03  7.4428975697641E-03  7.4428936726500E-03  7.4436588592586E-03 
 7.4420889199185E-03  7.4428688933749E-03  7.4436840405053E-03  7.4429040670126E-03  7.4428673944637E-03  7.4428688931813E-03  7.4428792853840E-03  7.4428975697641E-03  7.4428936726500E-03  7.4436588592586E-03 
 0.0000000000000E+00  0.0000000000000E+00  0.0000000000000E+00  0.0000000000000E+00  0.0000000000000E+00  0.0000000000000E+00  0.0000000000000E+00  0.0000000000000E+00  0.0000000000000E+00  0.0000000000000E+00 
ZONE T = "SEP , 2.0000E-08", I = 10, SOLUTIONTIME = 2.000000E-08
ZONETYPE = ORDERED
DATAPACKING = BLOCK
STRANDID = 2
 1.0000000000000E-04  1.0277777777778E-04  1.0555555555556E-04  1.0833333333333E-04  1.1111111111111E-04  1.1388888888889E-04  1.1666666666667E-04  1.1944444444444E-04  1.2222222222222E-04  1.2500000000000E-04 
 6.1250097651535E-09  6.1151508575128E-09  6.1149655914100E-09  6.1149671838780E-09  6.1149671587435E-09  6.1149671836787E-09  6.1149655738258E-09  6.1151795781118E-09  6.1249348362268E-09  5.7759050864496E-09 
 8.4394679999461E-01  8.4394679999991E-01  8.4394680000000E-01  8.4394680000000E-01  8.4394680000000E-01  8.4394680000000E-01  8.4394680000000E-01  8.4394680000000E-01  8.4394680000009E-01  8.4394680000538E-01 
 7.8026600002693E-02  7.8026600000045E-02  7.8026600000001E-02  7.8026600000000E-02  7.8026600000000E-02  7.8026600000000E-02  7.8026600000000E-02  7.8026599999999E-02  7.8026599999955E-02  7.8026599997309E-02 
 7.8026600002693E-02  7.8026600000045E-02  7.8026600000001E-02  7.8026600000000E-02  7.8026600000000E-02  7.8026600000000E-02  7.8026600000000E-02  7.8026599999999E-02  7.8026599999955E-02  7.8026599997309E-02 
-1.2132872348705E-01 -1.2132872452079E-01 -1.2132872555453E-01 -1.2132872658827E-01 -1.2132872762201E-01 -1.2132872865574E-01 -1.2132872968948E-01 -1.2132873072322E-01 -1.2132873175696E-01 -1.2132873279070E-01 
 8.0000000000000E-01  8.0000000000000E-01  8.0000000000000E-01  8.0000000000000E-01  8.0000000000000E-01  8.0000000000000E-01  8.0000000000000E-01  8.0000000000000E-01  8.0000000000000E-01  8.0000000000000E-01 
 1.3888888888889E-06  2.7777777777778E-06  2.7777777777778E-06  2.7777777777778E-06  2.7777777777778E-06  2.7777777777778E-06  2.7777777777778E-06  2.7777777777778E-06  2.7777777777778E-06  1.3888888888889E-06 
 2.0000000000000E-01  2.0000000000000E-01  2.0000000000000E-01  2.0000000000000E-01  2.0000000000000E-01  2.0000000000000E-01  2.0000000000000E-01  2.0000000000000E-01  2.0000000000000E-01  2.0000000000000E-01 
 1.4885007353242E-10  1.4885787226706E-10  1.4886602373764E-10  1.4885822400270E-10  1.4885785727721E-10  1.4885787226439E-10  1.4885797618641E-10  1.4885815903020E-10  1.4885812005833E-10  1.4886577292291E-10 
 7.4429184333231E-03  7.4429183333315E-03  7.4429183332586E-03  7.4429183332574E-03  7.4429183332575E-03  7.4429183332574E-03  7.4429183332574E-03  7.4429183332562E-03  7.4429183331834E-03  7.4429184330319E-03 
 7.4429184333231E-03  7.4429183333315E-03  7.4429183332586E-03  7.4429183332574E-03  7.4429183332575E-03  7.4429183332574E-03  7.4429183332574E-03  7.4429183332562E-03  7.4429183331834E-03  7.4429184330319E-03 
 0.0000000000000E+00  0.0000000000000E+00  0.0000000000000E+00  0.0000000000000E+00  0.0000000000000E+00  0.0000000000000E+00  0.0000000000000E+00  0.0000000000000E+00  0.0000000000000E+00  0.0000000000000E+00 
ZONE T = "SEP , 3.0000E-08", I = 10, SOLUTIONTIME = 3.000000E-08
ZONETYPE = ORDERED
DATAPACKING = BLOCK
STRANDID = 2
 1.0000000000000E-04  1.0277777777778E-04  1.0555555555556E-04  1.0833333333333E-04  1.1111111111111E-04  1.1388888888889E-04  1.1666666666667E-04  1.1944444444444E-04  1.2222222222222E-04  1.2500000000000E-04 
 6.1294284986705E-09  6.1148344106108E-09  6.1145177684307E-09  6.1145155863909E-09  6.1145155189592E-09  6.1145155849115E-09  6.1145176378495E-09  6.1149391413233E-09  6.1295337627716E-09  5.7759329795637E-09 
 8.4394679999196E-01  8.4394679999982E-01  8.4394680000000E-01  8.4394680000000E-01  8.4394680000000E-01  8.4394680000000E-01  8.4394680000000E-01  8.4394680000000E-01  8.4394680000018E-01  8.4394680000804E-01 
 7.8026600004022E-02  7.8026600000090E-02  7.8026600000002E-02  7.8026600000000E-02  7.8026600000000E-02  7.8026600000000E-02  7.8026600000000E-02  7.8026599999998E-02  7.8026599999910E-02  7.8026599995980E-02 
 7.8026600004022E-02  7.8026600000090E-02  7.8026600000002E-02  7.8026600000000E-02  7.8026600000000E-02  7.8026600000000E-02  7.8026600000000E-02  7.8026599999998E-02  7.8026599999910E-02  7.8026599995980E-02 
-1.2132872348772E-01 -1.2132872452145E-01 -1.2132872555519E-01 -1.2132872658893E-01 -1.2132872762267E-01 -1.2132872865641E-01 -1.2132872969015E-01 -1.2132873072389E-01 -1.2132873175763E-01 -1.2132873279136E-01 
 8.0000000000000E-01  8.0000000000000E-01  8.0000000000000E-01  8.0000000000000E-01  8.0000000000000E-01  8.0000000000000E-01  8.0000000000000E-01  8.0000000000000E-01  8.0000000000000E-01  8.0000000000000E-01 
 1.3888888888889E-06  2.7777777777778E-06  2.7777777777778E-06  2.7777777777778E-06  2.7777777777778E-06  2.7777777777778E-06  2.7777777777778E-06  2.7777777777778E-06  2.7777777777778E-06  1.3888888888889E-06 
 2.0000000000000E-01  2.0000000000000E-01  2.0000000000000E-01  2.0000000000000E-01  2.0000000000000E-01  2.0000000000000E-01  2.0000000000000E-01  2.0000000000000E-01  2.0000000000000E-01  2.0000000000000E-01 
 2.2327925586798E-10  2.2328705560076E-10  2.2329520707024E-10  2.2328740733527E-10  2.2328704060979E-10  2.2328705559696E-10  2.2328715951899E-10  2.2328734236275E-10  2.2328730338979E-10  2.2329495525409E-10 
 7.4429182335560E-03  7.4429183333692E-03  7.4429183332599E-03  7.4429183332574E-03  7.4429183332575E-03  7.4429183332574E-03  7.4429183332574E-03  7.4429183332549E-03  7.4429183331457E-03  7.4429182331188E-03 
 7.4429182335560E-03  7.4429183333692E-03  7.4429183332599E-03  7.4429183332574E-03  7.4429183332575E-03  7.4429183332574E-03  7.4429183332574E-03  7.4429183332549E-03  7.4429183331457E-03  7.4429182331188E-03 
 0.0000000000000E+00  0.0000000000000E+00  0.0000000000000E+00  0.0000000000000E+00  0.0000000000000E+00  0.0000000000000E+00  0.0000000000000E+00  0.0000000000000E+00  0.0000000000000E+00  0.0000000000000E+00 
ZONE T = "SEP , 4.0000E-08", I = 10, SOLUTIONTIME = 4.000000E-08
ZONETYPE = ORDERED
DATAPACKING = BLOCK
STRANDID = 2
 1.0000000000000E-04  1.0277777777778E-04  1.0555555555556E-04  1.0833333333333E-04  1.1111111111111E-04  1.1388888888889E-04  1.1666666666667E-04  1.1944444444444E-04  1.2222222222222E-04  1.2500000000000E-04 
 6.1350698446392E-09  6.1159326056103E-09  6.1153775228830E-09  6.1153791616398E-09  6.1153789327014E-09  6.1153791030610E-09  6.1154554978896E-09  6.1159598312070E-09  6.1351822166581E-09  5.7769393386558E-09 
 8.4394679998932E-01  8.4394679999970E-01  8.4394679999999E-01  8.4394680000000E-01  8.4394680000000E-01  8.4394680000000E-01  8.4394680000000E-01  8.4394680000001E-01  8.4394680000030E-01  8.4394680001067E-01 
 7.8026600005339E-02  7.8026600000149E-02  7.8026600000003E-02  7.8026600000000E-02  7.8026600000000E-02  7.8026600000000E-02  7.8026600000000E-02  7.8026599999997E-02  7.8026599999852E-02  7.8026599994663E-02 
 7.8026600005339E-02  7.8026600000149E-02  7.8026600000003E-02  7.8026600000000E-02  7.8026600000000E-02  7.8026600000000E-02  7.8026600000000E-02  7.8026599999997E-02  7.8026599999852E-02  7.8026599994663E-02 
-1.2132872348838E-01 -1.2132872452212E-01 -1.2132872555586E-01 -1.2132872658960E-01 -1.2132872762334E-01 -1.2132872865707E-01 -1.2132872969081E-01 -1.2132873072455E-01 -1.2132873175829E-01 -1.2132873279203E-01 
 8.0000000000000E-01  8.0000000000000E-01  8.0000000000000E-01  8.0000000000000E-01  8.0000000000000E-01  8.0000000000000E-01  8.0000000000000E-01  8.0000000000000E-01  8.0000000000000E-01  8.0000000000000E-01 
 1.3888888888889E-06  2.7777777777778E-06  2.7777777777778E-06  2.7777777777778E-06  2.7777777777778E-06  2.7777777777778E-06  2.7777777777778E-06  2.7777777777778E-06  2.7777777777778E-06  1.3888888888889E-06 
 2.0000000000000E-01  2.0000000000000E-01  2.0000000000000E-01  2.0000000000000E-01  2.0000000000000E-01  2.0000000000000E-01  2.0000000000000E-01  2.0000000000000E-01  2.0000000000000E-01  2.0000000000000E-01 
 2.9770844020267E-10  2.9771623893483E-10  2.9772439040285E-10  2.9771659066785E-10  2.9771622394236E-10  2.9771623892953E-10  2.9771634285156E-10  2.9771652569529E-10  2.9771648672087E-10  2.9772413958295E-10 
 7.4429184334693E-03  7.4429183334074E-03  7.4429183332615E-03  7.4429183332575E-03  7.4429183332575E-03  7.4429183332574E-03  7.4429183332573E-03  7.4429183332533E-03  7.4429183331075E-03  7.4429184328858E-03 
 7.4429184334693E-03  7.4429183334074E-03  7.4429183332615E-03  7.4429183332575E-03  7.4429183332575E-03  7.4429183332574E-03  7.4429183332573E-03  7.4429183332533E-03  7.4429183331075E-03  7.4429184328858E-03 
 0.0000000000000E+00  0.0000000000000E+00  0.0000000000000E+00  0.0000000000000E+00  0.0000000000000E+00  0.0000000000000E+00  0.0000000000000E+00  0.0000000000000E+00  0.0000000000000E+00  0.0000000000000E+00 
ZONE T = "SEP , 5.5000E-08", I = 10, SOLUTIONTIME = 5.500000E-08
ZONETYPE = ORDERED
DATAPACKING = BLOCK
STRANDID = 2
 1.0000000000000E-04  1.0277777777778E-04  1.0555555555556E-04  1.0833333333333E-04  1.1111111111111E-04  1.1388888888889E-04  1.1666666666667E-04  1.1944444444444E-04  1.2222222222222E-04  1.2500000000000E-04 
 6.1415105717121E-09  6.1157955216479E-09  6.1148270334666E-09  6.1148278187344E-09  6.1148271876867E-09  6.1148277669836E-09  6.1148265109882E-09  6.1157413593510E-09  6.1414206230299E-09  5.7765530557956E-09 
 8.4394679998542E-01  8.4394679999947E-01  8.4394679999998E-01  8.4394680000000E-01  8.4394680000000E-01  8.4394680000000E-01  8.4394680000000E-01  8.4394680000002E-01  8.4394680000053E-01  8.4394680001458E-01 
 7.8026600007292E-02  7.8026600000266E-02  7.8026600000008E-02  7.8026600000000E-02  7.8026600000000E-02  7.8026600000000E-02  7.8026600000000E-02  7.8026599999992E-02  7.8026599999734E-02  7.8026599992711E-02 
 7.8026600007292E-02  7.8026600000266E-02  7.8026600000008E-02  7.8026600000000E-02  7.8026600000000E-02  7.8026600000000E-02  7.8026600000000E-02  7.8026599999992E-02  7.8026599999734E-02  7.8026599992711E-02 
-1.2132872348905E-01 -1.2132872452279E-01 -1.2132872555653E-01 -1.2132872659027E-01 -1.2132872762401E-01 -1.2132872865775E-01 -1.2132872969149E-01 -1.2132873072522E-01 -1.2132873175896E-01 -1.2132873279270E-01 
 8.0000000000000E-01  8.0000000000000E-01  8.0000000000000E-01  8.0000000000000E-01  8.0000000000000E-01  8.0000000000000E-01  8.0000000000000E-01  8.0000000000000E-01  8.0000000000000E-01  8.0000000000000E-01 
 1.3888888888889E-06  2.7777777777778E-06  2.7777777777778E-06  2.7777777777778E-06  2.7777777777778E-06  2.7777777777778E-06  2.7777777777778E-06  2.7777777777778E-06  2.7777777777778E-06  1.3888888888889E-06 
 2.0000000000000E-01  2.0000000000000E-01  2.0000000000000E-01  2.0000000000000E-01  2.0000000000000E-01  2.0000000000000E-01  2.0000000000000E-01  2.0000000000000E-01  2.0000000000000E-01  2.0000000000000E-01 
 4.0935221670636E-10  4.0936001393682E-10  4.0936816540183E-10  4.0936036566671E-10  4.0935999894122E-10  4.0936001392840E-10  4.0936011785042E-10  4.0936030069403E-10  4.0936026171660E-10  4.0936791607459E-10 
 7.4429184335794E-03  7.4429183334657E-03  7.4429183332649E-03  7.4429183332576E-03  7.4429183332575E-03  7.4429183332574E-03  7.4429183332572E-03  7.4429183332499E-03  7.4429183330492E-03  7.4429184327757E-03 
 7.4429184335794E-03  7.4429183334657E-03  7.4429183332649E-03  7.4429183332576E-03  7.4429183332575E-03  7.4429183332574E-03  7.4429183332572E-03  7.4429183332499E-03  7.4429183330492E-03  7.4429184327757E-03 
 0.0000000000000E+00  0.0000000000000E+00  0.0000000000000E+00  0.0000000000000E+00  0.0000000000000E+00  0.0000000000000E+00  0.0000000000000E+00  0.0000000000000E+00  0.0000000000000E+00  0.0000000000000E+00 
ZONE T = "SEP , 7.7500E-08", I = 10, SOLUTIONTIME = 7.750000E-08
ZONETYPE = ORDERED
DATAPACKING = BLOCK
STRANDID = 2
 1.0000000000000E-04  1.0277777777778E-04  1.0555555555556E-04  1.0833333333333E-04  1.1111111111111E-04  1.1388888888889E-04  1.1666666666667E-04  1.1944444444444E-04  1.2222222222222E-04  1.2500000000000E-04 
 6.1515963672793E-09  6.1167477625311E-09  6.1149856722053E-09  6.1149035669710E-09  6.1149030633629E-09  6.1149035483515E-09  6.1149983755280E-09  6.1167851952299E-09  6.1516119924306E-09  5.7772616820704E-09 
 8.4394679997966E-01  8.4394679999899E-01  8.4394679999996E-01  8.4394680000000E-01  8.4394680000000E-01  8.4394680000000E-01  8.4394680000000E-01  8.4394680000004E-01  8.4394680000101E-01  8.4394680002033E-01 
 7.8026600010168E-02  7.8026600000506E-02  7.8026600000020E-02  7.8026600000001E-02  7.8026600000000E-02  7.8026600000000E-02  7.8026599999999E-02  7.8026599999980E-02  7.8026599999495E-02  7.8026599989836E-02 
 7.8026600010168E-02  7.8026600000506E-02  7.8026600000020E-02  7.8026600000001E-02  7.8026600000000E-02  7.8026600000000E-02  7.8026599999999E-02  7.8026599999980E-02  7.8026599999495E-02  7.8026599989836E-02 
-1.2132872349008E-01 -1.2132872452382E-01 -1.2132872555755E-01 -1.2132872659129E-01 -1.2132872762503E-01 -1.2132872865877E-01 -1.2132872969251E-01 -1.2132873072625E-01 -1.2132873175999E-01 -1.2132873279373E-01 
 8.0000000000000E-01  8.0000000000000E-01  8.0000000000000E-01  8.0000000000000E-01  8.0000000000000E-01  8.0000000000000E-01  8.0000000000000E-01  8.0000000000000E-01  8.0000000000000E-01  8.0000000000000E-01 
 1.3888888888889E-06  2.7777777777778E-06  2.7777777777778E-06  2.7777777777778E-06  2.7777777777778E-06  2.7777777777778E-06  2.7777777777778E-06  2.7777777777778E-06  2.7777777777778E-06  1.3888888888889E-06 
 2.0000000000000E-01  2.0000000000000E-01  2.0000000000000E-01  2.0000000000000E-01  2.0000000000000E-01  2.0000000000000E-01  2.0000000000000E-01  2.0000000000000E-01  2.0000000000000E-01  2.0000000000000E-01 
 5.7681787696922E-10  5.7682567419361E-10  5.7683382790044E-10  5.7682602816502E-10  5.7682566143952E-10  5.7682567642669E-10  5.7682578034870E-10  5.7682596319200E-10  5.7682592420820E-10  5.7683358080831E-10 
 7.4429182339049E-03  7.4429182336352E-03  7.4429183332719E-03  7.4429183332579E-03  7.4429183332575E-03  7.4429183332574E-03  7.4429183332568E-03  7.4429183332429E-03  7.4429183329597E-03  7.4429184326101E-03 
 7.4429182339049E-03  7.4429182336352E-03  7.4429183332719E-03  7.4429183332579E-03  7.4429183332575E-03  7.4429183332574E-03  7.4429183332568E-03  7.4429183332429E-03  7.4429183329597E-03  7.4429184326101E-03 
 0.0000000000000E+00  0.0000000000000E+00  0.0000000000000E+00  0.0000000000000E+00  0.0000000000000E+00  0.0000000000000E+00  0.0000000000000E+00  0.0000000000000E+00  0.0000000000000E+00  0.0000000000000E+00 
ZONE T = "SEP , 1.1125E-07", I = 10, SOLUTIONTIME = 1.112500E-07
ZONETYPE = ORDERED
DATAPACKING = BLOCK
STRANDID = 2
 1.0000000000000E-04  1.0277777777778E-04  1.0555555555556E-04  1.0833333333333E-04  1.1111111111111E-04  1.1388888888889E-04  1.1666666666667E-04  1.1944444444444E-04  1.2222222222222E-04  1.2500000000000E-04 
 6.1657768117607E-09  6.1185439313951E-09  6.1151676432222E-09  6.1149796277482E-09  6.1149796913881E-09  6.1149868849177E-09  6.1151746025170E-09  6.1185181372798E-09  6.1657355446641E-09  5.7779753871379E-09 
 8.4394679997126E-01  8.4394679999802E-01  8.4394679999989E-01  8.4394679999999E-01  8.4394680000000E-01  8.4394680000000E-01  8.4394680000001E-01  8.4394680000011E-01  8.4394680000198E-01  8.4394680002873E-01 
 7.8026600014372E-02  7.8026600000992E-02  7.8026600000055E-02  7.8026600000003E-02  7.8026600000000E-02  7.8026600000000E-02  7.8026599999997E-02  7.8026599999946E-02  7.8026599999008E-02  7.8026599985633E-02 
 7.8026600014372E-02  7.8026600000992E-02  7.8026600000055E-02  7.8026600000003E-02  7.8026600000000E-02  7.8026600000000E-02  7.8026599999997E-02  7.8026599999946E-02  7.8026599999008E-02  7.8026599985633E-02 
-1.2132872349161E-01 -1.2132872452535E-01 -1.2132872555909E-01 -1.2132872659283E-01 -1.2132872762657E-01 -1.2132872866031E-01 -1.2132872969404E-01 -1.2132873072778E-01 -1.2132873176152E-01 -1.2132873279526E-01 
 8.0000000000000E-01  8.0000000000000E-01  8.0000000000000E-01  8.0000000000000E-01  8.0000000000000E-01  8.0000000000000E-01  8.0000000000000E-01  8.0000000000000E-01  8.0000000000000E-01  8.0000000000000E-01 
 1.3888888888889E-06  2.7777777777778E-06  2.7777777777778E-06  2.7777777777778E-06  2.7777777777778E-06  2.7777777777778E-06  2.7777777777778E-06  2.7777777777778E-06  2.7777777777778E-06  1.3888888888889E-06 
 2.0000000000000E-01  2.0000000000000E-01  2.0000000000000E-01  2.0000000000000E-01  2.0000000000000E-01  2.0000000000000E-01  2.0000000000000E-01  2.0000000000000E-01  2.0000000000000E-01  2.0000000000000E-01 
 8.2801637411654E-10  8.2802416795577E-10  8.2803232164887E-10  8.2802452191251E-10  8.2802415518696E-10  8.2802417017412E-10  8.2802427409608E-10  8.2802445693845E-10  8.2802441794091E-10  8.2803207790049E-10 
 7.4429184339945E-03  7.4429183336938E-03  7.4429183332867E-03  7.4429183332590E-03  7.4429183332575E-03  7.4429183332573E-03  7.4429183332558E-03  7.4429183332281E-03  7.4429183328212E-03  7.4429184323607E-03 
 7.4429184339945E-03  7.4429183336938E-03  7.4429183332867E-03  7.4429183332590E-03  7.4429183332575E-03  7.4429183332573E-03  7.4429183332558E-03  7.4429183332281E-03  7.4429183328212E-03  7.4429184323607E-03 
 0.0000000000000E+00  0.0000000000000E+00  0.0000000000000E+00  0.0000000000000E+00  0.0000000000000E+00  0.0000000000000E+00  0.0000000000000E+00  0.0000000000000E+00  0.0000000000000E+00  0.0000000000000E+00 
ZONE T = "SEP , 1.6188E-07", I = 10, SOLUTIONTIME = 1.618750E-07
ZONETYPE = ORDERED
DATAPACKING = BLOCK
STRANDID = 2
 1.0000000000000E-04  1.0277777777778E-04  1.0555555555556E-04  1.0833333333333E-04  1.1111111111111E-04  1.1388888888889E-04  1.1666666666667E-04  1.1944444444444E-04  1.2222222222222E-04  1.2500000000000E-04 
 6.1850443489568E-09  6.1217639154825E-09  6.1154136477848E-09  6.1149126980954E-09  6.1148817658197E-09  6.1149290185561E-09  6.1154402986783E-09  6.1217948764751E-09  6.1850545123079E-09  5.7791021570752E-09 
 8.4394679995909E-01  8.4394679999606E-01  8.4394679999969E-01  8.4394679999998E-01  8.4394680000000E-01  8.4394680000000E-01  8.4394680000002E-01  8.4394680000031E-01  8.4394680000394E-01  8.4394680004089E-01 
 7.8026600020454E-02  7.8026600001970E-02  7.8026600000153E-02  7.8026600000010E-02  7.8026600000001E-02  7.8026599999999E-02  7.8026599999990E-02  7.8026599999847E-02  7.8026599998030E-02  7.8026599979554E-02 
 7.8026600020454E-02  7.8026600001970E-02  7.8026600000153E-02  7.8026600000010E-02  7.8026600000001E-02  7.8026599999999E-02  7.8026599999990E-02  7.8026599999847E-02  7.8026599998030E-02  7.8026599979554E-02 
-1.2132872349391E-01 -1.2132872452765E-01 -1.2132872556139E-01 -1.2132872659513E-01 -1.2132872762887E-01 -1.2132872866260E-01 -1.2132872969634E-01 -1.2132873073008E-01 -1.2132873176382E-01 -1.2132873279756E-01 
 8.0000000000000E-01  8.0000000000000E-01  8.0000000000000E-01  8.0000000000000E-01  8.0000000000000E-01  8.0000000000000E-01  8.0000000000000E-01  8.0000000000000E-01  8.0000000000000E-01  8.0000000000000E-01 
 1.3888888888889E-06  2.7777777777778E-06  2.7777777777778E-06  2.7777777777778E-06  2.7777777777778E-06  2.7777777777778E-06  2.7777777777778E-06  2.7777777777778E-06  2.7777777777778E-06  1.3888888888889E-06 
 2.0000000000000E-01  2.0000000000000E-01  2.0000000000000E-01  2.0000000000000E-01  2.0000000000000E-01  2.0000000000000E-01  2.0000000000000E-01  2.0000000000000E-01  2.0000000000000E-01  2.0000000000000E-01 
 1.2048141097396E-09  1.2048219086100E-09  1.2048300622731E-09  1.2048222625339E-09  1.2048218958081E-09  1.2048219057368E-09  1.2048220147170E-09  1.2048221975565E-09  1.2048221585290E-09  1.2048298235198E-09 
 7.4429182345298E-03  7.4429183339102E-03  7.4429183333182E-03  7.4429183332620E-03  7.4429183332577E-03  7.4429182333370E-03  7.4429183332528E-03  7.4429183331967E-03  7.4429183326049E-03  7.4429184319855E-03 
 7.4429182345298E-03  7.4429183339102E-03  7.4429183333182E-03  7.4429183332620E-03  7.4429183332577E-03  7.4429182333370E-03  7.4429183332528E-03  7.4429183331967E-03  7.4429183326049E-03  7.4429184319855E-03 
 0.0000000000000E+00  0.0000000000000E+00  0.0000000000000E+00  0.0000000000000E+00  0.0000000000000E+00  0.0000000000000E+00  0.0000000000000E+00  0.0000000000000E+00  0.0000000000000E+00  0.0000000000000E+00 
ZONE T = "SEP , 2.3781E-07", I = 10, SOLUTIONTIME = 2.378125E-07
ZONETYPE = ORDERED
DATAPACKING = BLOCK
STRANDID = 2
 1.0000000000000E-04  1.0277777777778E-04  1.0555555555556E-04  1.0833333333333E-04  1.1111111111111E-04  1.1388888888889E-04  1.1666666666667E-04  1.1944444444444E-04  1.2222222222222E-04  1.2500000000000E-04 
 6.2107787638465E-09  6.1280863328522E-09  6.1163958664275E-09  6.1150868008977E-09  6.1149723791800E-09  6.1150905017193E-09  6.1164027793789E-09  6.1280931758128E-09  6.2107544499566E-09  5.7809991567098E-09 
 8.4394679994173E-01  8.4394679999222E-01  8.4394679999915E-01  8.4394679999992E-01  8.4394679999999E-01  8.4394680000001E-01  8.4394680000008E-01  8.4394680000085E-01  8.4394680000777E-01  8.4394680005825E-01 
 7.8026600029134E-02  7.8026600003888E-02  7.8026600000424E-02  7.8026600000041E-02  7.8026600000003E-02  7.8026599999997E-02  7.8026599999959E-02  7.8026599999576E-02  7.8026599996114E-02  7.8026599970877E-02 
 7.8026600029134E-02  7.8026600003888E-02  7.8026600000424E-02  7.8026600000041E-02  7.8026600000003E-02  7.8026599999997E-02  7.8026599999959E-02  7.8026599999576E-02  7.8026599996114E-02  7.8026599970877E-02 
-1.2132872349736E-01 -1.2132872453110E-01 -1.2132872556483E-01 -1.2132872659857E-01 -1.2132872763231E-01 -1.2132872866605E-01 -1.2132872969979E-01 -1.2132873073353E-01 -1.2132873176727E-01 -1.2132873280100E-01 
 8.0000000000000E-01  8.0000000000000E-01  8.0000000000000E-01  8.0000000000000E-01  8.0000000000000E-01  8.0000000000000E-01  8.0000000000000E-01  8.0000000000000E-01  8.0000000000000E-01  8.0000000000000E-01 
 1.3888888888889E-06  2.7777777777778E-06  2.7777777777778E-06  2.7777777777778E-06  2.7777777777778E-06  2.7777777777778E-06  2.7777777777778E-06  2.7777777777778E-06  2.7777777777778E-06  1.3888888888889E-06 
 2.0000000000000E-01  2.0000000000000E-01  2.0000000000000E-01  2.0000000000000E-01  2.0000000000000E-01  2.0000000000000E-01  2.0000000000000E-01  2.0000000000000E-01  2.0000000000000E-01  2.0000000000000E-01 
 1.7700107283924E-09  1.7700185196171E-09  1.7700266732145E-09  1.7700188734667E-09  1.7700185067400E-09  1.7700185166685E-09  1.7700186256477E-09  1.7700188084786E-09  1.7700187693854E-09  1.7700264419059E-09 
 7.4429184349335E-03  7.4429183342501E-03  7.4429183333844E-03  7.4429183332709E-03  7.4429183332586E-03  7.4429183332562E-03  7.4429183332439E-03  7.4429183331305E-03  7.4429183322651E-03  7.4429184314221E-03 
 7.4429184349335E-03  7.4429183342501E-03  7.4429183333844E-03  7.4429183332709E-03  7.4429183332586E-03  7.4429183332562E-03  7.4429183332439E-03  7.4429183331305E-03  7.4429183322651E-03  7.4429184314221E-03 
 0.0000000000000E+00  0.0000000000000E+00  0.0000000000000E+00  0.0000000000000E+00  0.0000000000000E+00  0.0000000000000E+00  0.0000000000000E+00  0.0000000000000E+00  0.0000000000000E+00  0.0000000000000E+00 
ZONE T = "SEP , 3.5172E-07", I = 10, SOLUTIONTIME = 3.517188E-07
ZONETYPE = ORDERED
DATAPACKING = BLOCK
STRANDID = 2
 1.0000000000000E-04  1.0277777777778E-04  1.0555555555556E-04  1.0833333333333E-04  1.1111111111111E-04  1.1388888888889E-04  1.1666666666667E-04  1.1944444444444E-04  1.2222222222222E-04  1.2500000000000E-04 
 6.2433350268971E-09  6.1391378545317E-09  6.1186675962923E-09  6.1154508234526E-09  6.1150653961529E-09  6.1154462145056E-09  6.1186582612009E-09  6.1391267453713E-09  6.2432821970399E-09  5.7839437877807E-09 
 8.4394679991734E-01  8.4394679998498E-01  8.4394679999773E-01  8.4394679999969E-01  8.4394679999997E-01  8.4394680000003E-01  8.4394680000031E-01  8.4394680000227E-01  8.4394680001502E-01  8.4394680008263E-01 
 7.8026600041331E-02  7.8026600007511E-02  7.8026600001136E-02  7.8026600000153E-02  7.8026600000017E-02  7.8026599999983E-02  7.8026599999847E-02  7.8026599998864E-02  7.8026599992492E-02  7.8026599958685E-02 