TITLE = "Solution on Domain BulkDomain1D_0"
VARIABLES = "x [m]"  
"Vel_axial" 	"MF_sp(ECDMC)" 	"MF_sp(Li+)" 	"MF_sp(PF6-)" 	"Volt(Electroly)" 	"Volt(AnodeVolt)" 	
"Potential Drop Electrode-Electrolyte [V]" 	"Surf_0 Equilibrium Potential Drop Electrode-Electrolyte [V]" 	"Overpotential_0 [V]" 	"Current Source [A/m^2]" 	"Li+ flux [kmol/m^2/s]" 	"Electrolyte Current [A/m^2]" 	"Electrode Current [A/m^2]" 	
"Capacity discharged [A-s]" 	"Depth of discharge [-]" 	"Capacity remaining [A-s]" 	"Initial capacity [A-s]" 	"Porosity []" 	"Surface Area [m2/m2] (area per area)" 	"Specific current (per particle area) [A/m^2]" 	"Control volume thickness [m]" 	
"Moles Li_C6-bulk [mol/m^2] (per electrode area)" 	"Moles V_C6-bulk [mol/m^2] (per electrode area)" 	"qHeat_accum [J/m3]" 	"qHeat_step [W/m3]" 	"Joule_Lyte [W/m3]" 	"Joule_Solid [W/m3]" 	"electrodHeat [W/m3]" 	"OverpotHeat [W/m3]" 	"deltaSHeat [W/m3]" 	

ZONE T = "t = 0 [s]" I = 10 SOLUTIONTIME = 0.0000000000000E+00
0 	0 	0.843947 	0.0780266 	0.0780266 	-0.07 	0 	
0 	0 	0 	0 	0 	0 	-3.43064 	
0 	0 	0 	0 	0.3 	0.933333 	-7.35136 	5.55556e-06 	
6.79932e-05 	4.53288e-05 	0 	0.0 	 0.0 	 0.0 	 0.0 	 0.0 	 0.0 	 
1.11111e-05 	0 	0.843947 	0.0780266 	0.0780266 	-0.07 	0 	
0 	0 	0 	0 	0 	0 	-0 	
0 	0 	0 	0 	0.3 	1.86667 	-7.35136 	1.11111e-05 	
0.000135986 	9.06576e-05 	0 	0.0 	 0.0 	 0.0 	 0.0 	 0.0 	 0.0 	 
2.22222e-05 	0 	0.843947 	0.0780266 	0.0780266 	-0.07 	0 	
0 	0 	0 	0 	0 	0 	-0 	
0 	0 	0 	0 	0.3 	1.86667 	-7.35136 	1.11111e-05 	
0.000135986 	9.06576e-05 	0 	0.0 	 0.0 	 0.0 	 0.0 	 0.0 	 0.0 	 
3.33333e-05 	0 	0.843947 	0.0780266 	0.0780266 	-0.07 	0 	
0 	0 	0 	0 	0 	0 	-0 	
0 	0 	0 	0 	0.3 	1.86667 	-7.35136 	1.11111e-05 	
0.000135986 	9.06576e-05 	0 	0.0 	 0.0 	 0.0 	 0.0 	 0.0 	 0.0 	 
4.44444e-05 	0 	0.843947 	0.0780266 	0.0780266 	-0.07 	0 	
0 	0 	0 	0 	0 	0 	-0 	
0 	0 	0 	0 	0.3 	1.86667 	-7.35136 	1.11111e-05 	
0.000135986 	9.06576e-05 	0 	0.0 	 0.0 	 0.0 	 0.0 	 0.0 	 0.0 	 
5.55556e-05 	0 	0.843947 	0.0780266 	0.0780266 	-0.07 	0 	
0 	0 	0 	0 	0 	0 	-0 	
0 	0 	0 	0 	0.3 	1.86667 	-7.35136 	1.11111e-05 	
0.000135986 	9.06576e-05 	0 	0.0 	 0.0 	 0.0 	 0.0 	 0.0 	 0.0 	 
6.66667e-05 	0 	0.843947 	0.0780266 	0.0780266 	-0.07 	0 	
0 	0 	0 	0 	0 	0 	-0 	
0 	0 	0 	0 	0.3 	1.86667 	-7.35136 	1.11111e-05 	
0.000135986 	9.06576e-05 	0 	0.0 	 0.0 	 0.0 	 0.0 	 0.0 	 0.0 	 
7.77778e-05 	0 	0.843947 	0.0780266 	0.0780266 	-0.07 	0 	
0 	0 	0 	0 	0 	0 	-0 	
0 	0 	0 	0 	0.3 	1.86667 	-7.35136 	1.11111e-05 	
0.000135986 	9.06576e-05 	0 	0.0 	 0.0 	 0.0 	 0.0 	 0.0 	 0.0 	 
8.88889e-05 	0 	0.843947 	0.0780266 	0.0780266 	-0.07 	0 	
0 	0 	0 	0 	0 	0 	-0 	
0 	0 	0 	0 	0.3 	1.86667 	-7.35136 	1.11111e-05 	
0.000135986 	9.06576e-05 	0 	0.0 	 0.0 	 0.0 	 0.0 	 0.0 	 0.0 	 
0.0001 	0 	0.843947 	0.0780266 	0.0780266 	-0.07 	0 	
0 	0 	0 	0 	0 	-3.43064 	0 	
0 	0 	0 	0 	0.3 	0.933333 	-7.35136 	5.55556e-06 	
6.79932e-05 	4.53288e-05 	0 	0.0 	 0.0 	 0.0 	 0.0 	 0.0 	 0.0 	 
ZONE T = "t = 1e-08 [s]" I = 10 SOLUTIONTIME = 1.0000000000000E-08
0 	3.4023e-10 	0.843947 	0.0780266 	0.0780266 	-0.12133 	0 	
0.07 	0.113444 	-0.0434441 	-6.86127 	-0 	0.55636 	19.4437 	
0 	4373.57 	0.656035 	1.09339 	0.3 	0.933333 	1.19242 	5.55556e-06 	
6.79932e-05 	4.53288e-05 	0.000212639 	21263.9 	0.000100325 	6.09104 	21257.8 	21257.8 	0 	
1.11111e-05 	1.02036e-09 	0.843947 	0.0780266 	0.0780266 	-0.12133 	-3.58327e-06 	
0.07 	0.113444 	-0.0434441 	-13.7225 	-0 	2.22493 	17.7751 	
0 	8747.13 	1.31207 	2.18678 	0.3 	1.86667 	1.19187 	1.11111e-05 	
0.000135986 	9.06576e-05 	0.000212652 	21265.2 	0.000501349 	5.41592 	21259.8 	21259.8 	0 	
2.22222e-05 	1.70026e-09 	0.843947 	0.0780266 	0.0780266 	-0.12133 	-6.74453e-06 	
0.07 	0.113444 	-0.0434441 	-13.7225 	-0 	4.4489 	15.5511 	
0 	8747.13 	1.31207 	2.18678 	0.3 	1.86667 	1.19139 	1.11111e-05 	
0.000135986 	9.06576e-05 	0.000212352 	21235.2 	0.00170392 	4.15039 	21231 	21231 	0 	
3.33333e-05 	2.38003e-09 	0.843947 	0.0780266 	0.0780266 	-0.12133 	-9.48394e-06 	
0.07 	0.113444 	-0.0434441 	-13.7225 	-0 	6.67204 	13.328 	
0 	8747.13 	1.31207 	2.18678 	0.3 	1.86667 	1.19097 	1.11111e-05 	
0.000135986 	9.06576e-05 	0.000212485 	21248.5 	0.00370714 	3.05415 	21245.4 	21245.4 	0 	
4.44444e-05 	3.05949e-09 	0.843947 	0.0780266 	0.0780266 	-0.12133 	-1.18017e-05 	
0.07 	0.113444 	-0.0434441 	-13.7225 	-0 	8.89446 	11.1055 	
0 	8747.13 	1.31207 	2.18678 	0.3 	1.86667 	1.19062 	1.11111e-05 	
0.000135986 	9.06576e-05 	0.000212089 	21208.9 	0.00651028 	2.12695 	21206.8 	21206.8 	0 	
5.55556e-05 	3.7388e-09 	0.843947 	0.0780266 	0.0780266 	-0.12133 	-1.36978e-05 	
0.07 	0.113444 	-0.0434441 	-13.7225 	-0 	11.1163 	8.88372 	
0 	8747.13 	1.31207 	2.18678 	0.3 	1.86667 	1.19033 	1.11111e-05 	
0.000135986 	9.06576e-05 	0.000212446 	21244.6 	0.0101128 	1.36861 	21243.2 	21243.2 	0 	
6.66667e-05 	4.41793e-09 	0.843947 	0.0780266 	0.0780266 	-0.12133 	-1.51725e-05 	
0.07 	0.113444 	-0.0434441 	-13.7225 	-0 	13.3376 	6.66238 	
0 	8747.13 	1.31207 	2.18678 	0.3 	1.86667 	1.19011 	1.11111e-05 	
0.000135986 	9.06576e-05 	0.000212059 	21205.9 	0.0145142 	0.778958 	21205.1 	21205.1 	0 	
7.77778e-05 	5.09689e-09 	0.843947 	0.0780266 	0.0780266 	-0.12133 	-1.62258e-05 	
0.07 	0.113444 	-0.0434441 	-13.7225 	-0 	15.5586 	4.44139 	
0 	8747.13 	1.31207 	2.18678 	0.3 	1.86667 	1.18995 	1.11111e-05 	
0.000135986 	9.06576e-05 	0.000212074 	21207.4 	0.0197144 	0.357868 	21207 	21207 	0 	
8.88889e-05 	5.77614e-09 	0.843947 	0.0780266 	0.0780266 	-0.12133 	-1.68577e-05 	
0.07 	0.113444 	-0.0434441 	-13.7225 	-0 	17.7794 	2.22064 	
0 	8747.13 	1.31207 	2.18678 	0.3 	1.86667 	1.18986 	1.11111e-05 	
0.000135986 	9.06576e-05 	0.000211987 	21198.7 	0.0257134 	0.10525 	21198.6 	21198.6 	0 	
0.0001 	6.12179e-09 	0.843947 	0.0780266 	0.0780266 	-0.12133 	-1.70684e-05 	
0.07 	0.113444 	-0.0434441 	-6.86127 	-0 	19.4449 	0.555152 	
0 	4373.57 	0.656035 	1.09339 	0.3 	0.933333 	1.18983 	5.55556e-06 	
6.79932e-05 	4.53288e-05 	0.00021213 	21213 	0.0289125 	0.0210493 	21213 	21213 	0 	
ZONE T = "t = 2e-08 [s]" I = 10 SOLUTIONTIME = 2.0000000000000E-08
0 	3.40239e-10 	0.843947 	0.0780266 	0.0780266 	-0.121329 	0 	
0.12133 	0.113444 	0.00788582 	1.11292 	5.76627e-09 	0.55636 	19.4436 	
1.11292e-12 	4373.57 	0.656035 	1.09339 	0.3 	0.933333 	1.1922 	5.55556e-06 	
6.79932e-05 	4.53288e-05 	0.000425232 	21259.3 	0.00020065 	12.1821 	21253.2 	21253.2 	0 	
1.11111e-05 	1.02042e-09 	0.843947 	0.0780266 	0.0780266 	-0.121329 	-3.58327e-06 	
0.121326 	0.113444 	0.00788224 	2.22483 	1.72935e-08 	2.22493 	17.7751 	
2.22483e-12 	8747.13 	1.31207 	2.18678 	0.3 	1.86667 	1.19165 	1.11111e-05 	
0.000135986 	9.06576e-05 	0.000425244 	21259.2 	0.0010027 	10.8318 	21253.8 	21253.8 	0 	
2.22222e-05 	1.70019e-09 	0.843947 	0.0780266 	0.0780266 	-0.121329 	-6.74453e-06 	
0.121323 	0.113444 	0.00787908 	2.22393 	2.88161e-08 	4.44891 	15.5511 	
2.22393e-12 	8747.13 	1.31207 	2.18678 	0.3 	1.86667 	1.19117 	1.11111e-05 	
0.000135986 	9.06576e-05 	0.000424834 	21248.2 	0.00340785 	8.30078 	21244 	21244 	0 	
3.33333e-05 	2.37976e-09 	0.843947 	0.0780266 	0.0780266 	-0.121329 	-9.48394e-06 	
0.12132 	0.113444 	0.00787635 	2.22315 	4.03347e-08 	6.67204 	13.328 	
2.22315e-12 	8747.13 	1.31207 	2.18678 	0.3 	1.86667 	1.19076 	1.11111e-05 	
0.000135986 	9.06576e-05 	0.000424599 	21211.4 	0.00741429 	6.10829 	21208.4 	21208.4 	0 	
4.44444e-05 	3.05917e-09 	0.843947 	0.0780266 	0.0780266 	-0.121329 	-1.18017e-05 	
0.121318 	0.113444 	0.00787404 	2.22249 	5.18499e-08 	8.89446 	11.1055 	
2.22249e-12 	8747.13 	1.31207 	2.18678 	0.3 	1.86667 	1.1904 	1.11111e-05 	
0.000135986 	9.06576e-05 	0.00042425 	21216.1 	0.0130206 	4.2539 	21214 	21214 	0 	
5.55556e-05 	3.73841e-09 	0.843947 	0.0780266 	0.0780266 	-0.121329 	-1.36978e-05 	
0.121316 	0.113444 	0.00787215 	2.22195 	6.33622e-08 	11.1163 	8.88372 	
2.22195e-12 	8747.13 	1.31207 	2.18678 	0.3 	1.86667 	1.19012 	1.11111e-05 	
0.000135986 	9.06576e-05 	0.0004247 	21225.4 	0.0202255 	2.73722 	21224 	21224 	0 	
6.66667e-05 	4.41758e-09 	0.843947 	0.0780266 	0.0780266 	-0.121329 	-1.51725e-05 	
0.121315 	0.113444 	0.00787069 	2.22154 	7.48725e-08 	13.3376 	6.66238 	
2.22154e-12 	8747.13 	1.31207 	2.18678 	0.3 	1.86667 	1.18989 	1.11111e-05 	
0.000135986 	9.06576e-05 	0.000424214 	21215.5 	0.0290285 	1.55792 	21214.7 	21214.7 	0 	
7.77778e-05 	5.09666e-09 	0.843947 	0.0780266 	0.0780266 	-0.121329 	-1.62258e-05 	
0.121314 	0.113444 	0.00786965 	2.22124 	8.63812e-08 	15.5586 	4.44139 	
2.22124e-12 	8747.13 	1.31207 	2.18678 	0.3 	1.86667 	1.18974 	1.11111e-05 	
0.000135986 	9.06576e-05 	0.000424368 	21229.4 	0.0394289 	0.715736 	21229 	21229 	0 	
8.88889e-05 	5.77597e-09 	0.843947 	0.0780266 	0.0780266 	-0.121329 	-1.68577e-05 	
0.121313 	0.113444 	0.00786903 	2.22107 	9.78909e-08 	17.7794 	2.22064 	
2.22107e-12 	8747.13 	1.31207 	2.18678 	0.3 	1.86667 	1.18964 	1.11111e-05 	
0.000135986 	9.06576e-05 	0.000424156 	21216.8 	0.0514268 	0.210499 	21216.7 	21216.7 	0 	
0.0001 	6.1276e-09 	0.843947 	0.0780266 	0.0780266 	-0.121329 	-1.70684e-05 	
0.121313 	0.113444 	0.00786883 	1.11051 	9.78909e-08 	19.4448 	0.555152 	
1.11051e-12 	4373.57 	0.656035 	1.09339 	0.3 	0.933333 	1.18961 	5.55556e-06 	
6.79932e-05 	4.53288e-05 	0.000424296 	21216.6 	0.0578251 	0.0420986 	21216.6 	21216.6 	0 	
ZONE T = "t = 3e-08 [s]" I = 10 SOLUTIONTIME = 3.0000000000000E-08
0 	3.4016e-10 	0.843947 	0.0780266 	0.0780266 	-0.121329 	0 	
0.121329 	0.113444 	0.00788441 	1.11272 	5.76627e-09 	0.55636 	19.4436 	
2.22564e-12 	4373.57 	0.656035 	1.09339 	0.3 	0.933333 	1.1922 	5.55556e-06 	
6.79932e-05 	4.53288e-05 	0.000637981 	21274.9 	0.000300975 	18.2731 	21268.8 	21268.8 	0 	
1.11111e-05 	1.02018e-09 	0.843947 	0.0780266 	0.0780266 	-0.121329 	-3.58327e-06 	
0.121325 	0.113444 	0.00788082 	2.22442 	1.72935e-08 	2.22493 	17.7751 	
4.44925e-12 	8747.13 	1.31207 	2.18678 	0.3 	1.86667 	1.19165 	1.11111e-05 	
0.000135986 	9.06576e-05 	0.00063763 	21238.6 	0.00150405 	16.2478 	21233.2 	21233.2 	0 	
2.22222e-05 	1.69995e-09 	0.843947 	0.0780266 	0.0780266 	-0.121329 	-6.74453e-06 	
0.121322 	0.113444 	0.00787767 	2.22352 	2.88161e-08 	4.44891 	15.5511 	
4.44745e-12 	8747.13 	1.31207 	2.18678 	0.3 	1.86667 	1.19117 	1.11111e-05 	
0.000135986 	9.06576e-05 	0.000637272 	21243.8 	0.00511177 	12.4512 	21239.7 	21239.7 	0 	
3.33333e-05 	2.37952e-09 	0.843947 	0.0780266 	0.0780266 	-0.121329 	-9.48394e-06 	
0.121319 	0.113444 	0.00787493 	2.22275 	4.03347e-08 	6.67204 	13.328 	
4.4459e-12 	8747.13 	1.31207 	2.18678 	0.3 	1.86667 	1.19076 	1.11111e-05 	
0.000135986 	9.06576e-05 	0.000636845 	21224.5 	0.0111214 	9.16243 	21221.5 	21221.5 	0 	
4.44444e-05 	3.05888e-09 	0.843947 	0.0780266 	0.0780266 	-0.121329 	-1.18017e-05 	
0.121317 	0.113444 	0.00787262 	2.22209 	5.18499e-08 	8.89446 	11.1055 	
4.44458e-12 	8747.13 	1.31207 	2.18678 	0.3 	1.86667 	1.1904 	1.11111e-05 	
0.000135986 	9.06576e-05 	0.000636574 	21232.4 	0.0195308 	6.38086 	21230.2 	21230.2 	0 	
5.55556e-05 	3.73807e-09 	0.843947 	0.0780266 	0.0780266 	-0.121329 	-1.36978e-05 	
0.121315 	0.113444 	0.00787073 	2.22155 	6.33622e-08 	11.1163 	8.88372 	
4.44351e-12 	8747.13 	1.31207 	2.18678 	0.3 	1.86667 	1.19012 	1.11111e-05 	
0.000135986 	9.06576e-05 	0.000636964 	21226.5 	0.0303383 	4.10583 	21225.1 	21225.1 	0 	
6.66667e-05 	4.41702e-09 	0.843947 	0.0780266 	0.0780266 	-0.121329 	-1.51725e-05 	
0.121313 	0.113444 	0.00786927 	2.22114 	7.48725e-08 	13.3376 	6.66238 	
4.44267e-12 	8747.13 	1.31207 	2.18678 	0.3 	1.86667 	1.18989 	1.11111e-05 	
0.000135986 	9.06576e-05 	0.000636147 	21193.4 	0.0435427 	2.33688 	21192.6 	21192.6 	0 	
7.77778e-05 	5.0959e-09 	0.843947 	0.0780266 	0.0780266 	-0.121329 	-1.62258e-05 	
0.121312 	0.113444 	0.00786823 	2.22084 	8.63812e-08 	15.5586 	4.44139 	
4.44208e-12 	8747.13 	1.31207 	2.18678 	0.3 	1.86667 	1.18974 	1.11111e-05 	
0.000135986 	9.06576e-05 	0.000636401 	21203.3 	0.0591433 	1.0736 	21202.9 	21202.9 	0 	
8.88889e-05 	5.77547e-09 	0.843947 	0.0780266 	0.0780266 	-0.121329 	-1.68577e-05 	
0.121312 	0.113444 	0.00786761 	2.22066 	9.78929e-08 	17.7794 	2.22064 	
4.44173e-12 	8747.13 	1.31207 	2.18678 	0.3 	1.86667 	1.18964 	1.11111e-05 	
0.000135986 	9.06576e-05 	0.000635981 	21182.5 	0.0771402 	0.315749 	21182.4 	21182.4 	0 	
0.0001 	6.13316e-09 	0.843947 	0.0780266 	0.0780266 	-0.121329 	-1.70684e-05 	
0.121312 	0.113444 	0.00786742 	1.1103 	9.78929e-08 	19.4448 	0.555152 	
2.22081e-12 	4373.57 	0.656035 	1.09339 	0.3 	0.933333 	1.18961 	5.55556e-06 	
6.79932e-05 	4.53288e-05 	0.000636366 	21206.9 	0.0867376 	0.0631479 	21206.9 	21206.9 	0 	
ZONE T = "t = 4e-08 [s]" I = 10 SOLUTIONTIME = 4.0000000000000E-08
0 	3.40239e-10 	0.843947 	0.0780266 	0.0780266 	-0.121329 	0 	
0.121329 	0.113444 	0.00788441 	1.11272 	5.76627e-09 	0.55636 	19.4436 	
3.33836e-12 	4373.57 	0.656035 	1.09339 	0.3 	0.933333 	1.1922 	5.55556e-06 	
6.79932e-05 	4.53288e-05 	0.00085057 	21259 	0.0004013 	24.3642 	21252.9 	21252.9 	0 	
1.11111e-05 	1.02037e-09 	0.843947 	0.0780266 	0.0780266 	-0.121329 	-3.58327e-06 	
0.121325 	0.113444 	0.00788082 	2.22442 	1.72935e-08 	2.22493 	17.7751 	
6.67367e-12 	8747.13 	1.31207 	2.18678 	0.3 	1.86667 	1.19165 	1.11111e-05 	
0.000135986 	9.06576e-05 	0.000850366 	21273.6 	0.0020054 	21.6637 	21268.2 	21268.2 	0 	
2.22222e-05 	1.70036e-09 	0.843947 	0.0780266 	0.0780266 	-0.121329 	-6.74453e-06 	
0.121322 	0.113444 	0.00787767 	2.22352 	2.88161e-08 	4.44891 	15.5511 	
6.67098e-12 	8747.13 	1.31207 	2.18678 	0.3 	1.86667 	1.19117 	1.11111e-05 	
0.000135986 	9.06576e-05 	0.000849895 	21262.3 	0.0068157 	16.6016 	21258.1 	21258.1 	0 	
3.33333e-05 	2.37993e-09 	0.843947 	0.0780266 	0.0780266 	-0.121329 	-9.48394e-06 	
0.121319 	0.113444 	0.00787493 	2.22275 	4.03347e-08 	6.67204 	13.328 	
6.66864e-12 	8747.13 	1.31207 	2.18678 	0.3 	1.86667 	1.19076 	1.11111e-05 	
0.000135986 	9.06576e-05 	0.000849323 	21247.8 	0.0148286 	12.2166 	21244.7 	21244.7 	0 	
4.44444e-05 	3.05944e-09 	0.843947 	0.0780266 	0.0780266 	-0.121329 	-1.18017e-05 	
0.121317 	0.113444 	0.00787262 	2.22209 	5.18499e-08 	8.89446 	11.1055 	
6.66667e-12 	8747.13 	1.31207 	2.18678 	0.3 	1.86667 	1.1904 	1.11111e-05 	
0.000135986 	9.06576e-05 	0.000849087 	21251.3 	0.0260411 	8.50781 	21249.1 	21249.1 	0 	
5.55556e-05 	3.73863e-09 	0.843947 	0.0780266 	0.0780266 	-0.121329 	-1.36978e-05 	
0.121315 	0.113444 	0.00787073 	2.22155 	6.33622e-08 	11.1163 	8.88372 	
6.66506e-12 	8747.13 	1.31207 	2.18678 	0.3 	1.86667 	1.19012 	1.11111e-05 	
0.000135986 	9.06576e-05 	0.000849276 	21231.1 	0.0404511 	5.47444 	21229.8 	21229.8 	0 	
6.66667e-05 	4.4179e-09 	0.843947 	0.0780266 	0.0780266 	-0.121329 	-1.51725e-05 	
0.121313 	0.113444 	0.00786927 	2.22114 	7.48725e-08 	13.3376 	6.66238 	
6.66381e-12 	8747.13 	1.31207 	2.18678 	0.3 	1.86667 	1.18989 	1.11111e-05 	
0.000135986 	9.06576e-05 	0.000848462 	21231.5 	0.0580569 	3.11583 	21230.7 	21230.7 	0 	
7.77778e-05 	5.09698e-09 	0.843947 	0.0780266 	0.0780266 	-0.121329 	-1.62258e-05 	
0.121312 	0.113444 	0.00786823 	2.22084 	8.63812e-08 	15.5586 	4.44139 	
6.66292e-12 	8747.13 	1.31207 	2.18678 	0.3 	1.86667 	1.18974 	1.11111e-05 	
0.000135986 	9.06576e-05 	0.000848821 	21242 	0.0788578 	1.43147 	21241.7 	21241.7 	0 	
8.88889e-05 	5.77688e-09 	0.843947 	0.0780266 	0.0780266 	-0.121329 	-1.68577e-05 	
0.121312 	0.113444 	0.00786761 	2.22066 	9.7895e-08 	17.7794 	2.22064 	
6.6624e-12 	8747.13 	1.31207 	2.18678 	0.3 	1.86667 	1.18964 	1.11111e-05 	
0.000135986 	9.06576e-05 	0.00084834 	21235.9 	0.102854 	0.420998 	21235.8 	21235.8 	0 	
0.0001 	6.14023e-09 	0.843947 	0.0780266 	0.0780266 	-0.121329 	-1.70684e-05 	
0.121312 	0.113444 	0.00786742 	1.1103 	9.7895e-08 	19.4448 	0.555152 	
3.33112e-12 	4373.57 	0.656035 	1.09339 	0.3 	0.933333 	1.18961 	5.55556e-06 	
6.79932e-05 	4.53288e-05 	0.00084838 	21201.5 	0.11565 	0.0841971 	21201.4 	21201.4 	0 	
ZONE T = "t = 5.5e-08 [s]" I = 10 SOLUTIONTIME = 5.5000000000000E-08
0 	3.4024e-10 	0.843947 	0.0780266 	0.0780266 	-0.121329 	0 	
0.121329 	0.113444 	0.00788441 	1.11272 	5.76628e-09 	0.55636 	19.4436 	
4.45108e-12 	4373.57 	0.656035 	1.09339 	0.3 	0.933333 	1.1922 	5.55556e-06 	
6.79932e-05 	4.53288e-05 	0.0011696 	21268.9 	0.000367858 	22.3338 	21262.8 	21262.8 	0 	
1.11111e-05 	1.02032e-09 	0.843947 	0.0780266 	0.0780266 	-0.121329 	-3.58327e-06 	
0.121325 	0.113444 	0.00788082 	2.22442 	1.72935e-08 	2.22493 	17.7751 	
8.89809e-12 	8747.13 	1.31207 	2.18678 	0.3 	1.86667 	1.19165 	1.11111e-05 	
0.000135986 	9.06576e-05 	0.00116917 	21253.4 	0.00183828 	19.8584 	21248 	21248 	0 	
2.22222e-05 	1.70013e-09 	0.843947 	0.0780266 	0.0780266 	-0.121329 	-6.74453e-06 	
0.121322 	0.113444 	0.00787767 	2.22352 	2.88161e-08 	4.44891 	15.5511 	
8.8945e-12 	8747.13 	1.31207 	2.18678 	0.3 	1.86667 	1.19117 	1.11111e-05 	
0.000135986 	9.06576e-05 	0.0011685 	21240.2 	0.00624772 	15.2181 	21236.1 	21236.1 	0 	
3.33333e-05 	2.37977e-09 	0.843947 	0.0780266 	0.0780266 	-0.121329 	-9.48394e-06 	
0.121319 	0.113444 	0.00787493 	2.22275 	4.03347e-08 	6.67204 	13.328 	
8.89139e-12 	8747.13 	1.31207 	2.18678 	0.3 	1.86667 	1.19076 	1.11111e-05 	
0.000135986 	9.06576e-05 	0.0011679 	21238.3 	0.0135929 	11.1985 	21235.2 	21235.2 	0 	
4.44444e-05 	3.05916e-09 	0.843947 	0.0780266 	0.0780266 	-0.121329 	-1.18017e-05 	
0.121317 	0.113444 	0.00787262 	2.22209 	5.18499e-08 	8.89446 	11.1055 	
8.88876e-12 	8747.13 	1.31207 	2.18678 	0.3 	1.86667 	1.1904 	1.11111e-05 	
0.000135986 	9.06576e-05 	0.00116764 	21237 	0.023871 	7.79882 	21234.8 	21234.8 	0 	
5.55556e-05 	3.7384e-09 	0.843947 	0.0780266 	0.0780266 	-0.121329 	-1.36978e-05 	
0.121315 	0.113444 	0.00787073 	2.22155 	6.33622e-08 	11.1163 	8.88372 	
8.88661e-12 	8747.13 	1.31207 	2.18678 	0.3 	1.86667 	1.19012 	1.11111e-05 	
0.000135986 	9.06576e-05 	0.00116792 	21242.8 	0.0370801 	5.01824 	21241.4 	21241.4 	0 	
6.66667e-05 	4.41748e-09 	0.843947 	0.0780266 	0.0780266 	-0.121329 	-1.51725e-05 	
0.121313 	0.113444 	0.00786927 	2.22114 	7.48725e-08 	13.3376 	6.66238 	
8.88495e-12 	8747.13 	1.31207 	2.18678 	0.3 	1.86667 	1.18989 	1.11111e-05 	
0.000135986 	9.06576e-05 	0.00116647 	21200.8 	0.0532188 	2.85618 	21200 	21200 	0 	
7.77778e-05 	5.09635e-09 	0.843947 	0.0780266 	0.0780266 	-0.121329 	-1.62258e-05 	
0.121312 	0.113444 	0.00786823 	2.22084 	8.63812e-08 	15.5586 	4.44139 	
8.88376e-12 	8747.13 	1.31207 	2.18678 	0.3 	1.86667 	1.18974 	1.11111e-05 	
0.000135986 	9.06576e-05 	0.00116694 	21207.7 	0.0722863 	1.31218 	21207.3 	21207.3 	0 	
8.88889e-05 	5.77663e-09 	0.843947 	0.0780266 	0.0780266 	-0.121329 	-1.68577e-05 	
0.121312 	0.113444 	0.00786761 	2.22066 	9.7897e-08 	17.7794 	2.22064 	
8.88306e-12 	8747.13 	1.31207 	2.18678 	0.3 	1.86667 	1.18964 	1.11111e-05 	
0.000135986 	9.06576e-05 	0.00116647 	21208.7 	0.0942824 	0.385915 	21208.5 	21208.5 	0 	
0.0001 	6.14828e-09 	0.843947 	0.0780266 	0.0780266 	-0.121329 	-1.70684e-05 	
0.121312 	0.113444 	0.00786742 	1.1103 	9.7897e-08 	19.4448 	0.555152 	
4.44142e-12 	4373.57 	0.656035 	1.09339 	0.3 	0.933333 	1.18961 	5.55556e-06 	
6.79932e-05 	4.53288e-05 	0.00116678 	21226.5 	0.106013 	0.0771807 	21226.5 	21226.5 	0 	
ZONE T = "t = 7.75e-08 [s]" I = 10 SOLUTIONTIME = 7.7500000000000E-08
0 	3.40169e-10 	0.843947 	0.0780266 	0.0780266 	-0.121329 	0 	
0.121329 	0.113444 	0.00788441 	1.11272 	5.76628e-09 	0.55636 	19.4436 	
6.12017e-12 	4373.57 	0.656035 	1.09339 	0.3 	0.933333 	1.1922 	5.55556e-06 	
6.79932e-05 	4.53288e-05 	0.00164831 	21276 	0.000345564 	20.9803 	21269.9 	21269.9 	0 	
1.11111e-05 	1.02027e-09 	0.843947 	0.0780266 	0.0780266 	-0.121329 	-3.58327e-06 	
0.121325 	0.113444 	0.00788082 	2.22442 	1.72935e-08 	2.22493 	17.7751 	
1.22347e-11 	8747.13 	1.31207 	2.18678 	0.3 	1.86667 	1.19165 	1.11111e-05 	
0.000135986 	9.06576e-05 	0.0016473 	21250.4 	0.00172687 	18.6548 	21245 	21245 	0 	
2.22222e-05 	1.70009e-09 	0.843947 	0.0780266 	0.0780266 	-0.121329 	-6.74453e-06 	
0.121322 	0.113444 	0.00787767 	2.22352 	2.88161e-08 	4.44891 	15.5511 	
1.22298e-11 	8747.13 	1.31207 	2.18678 	0.3 	1.86667 	1.19117 	1.11111e-05 	
0.000135986 	9.06576e-05 	0.00164674 	21255.3 	0.00586907 	14.2958 	21251.1 	21251.1 	0 	
3.33333e-05 	2.37968e-09 	0.843947 	0.0780266 	0.0780266 	-0.121329 	-9.48394e-06 	
0.121319 	0.113444 	0.00787493 	2.22275 	4.03347e-08 	6.67204 	13.328 	
1.22255e-11 	8747.13 	1.31207 	2.18678 	0.3 	1.86667 	1.19076 	1.11111e-05 	
0.000135986 	9.06576e-05 	0.0016464 	21267 	0.0127691 	10.5198 	21264 	21264 	0 	
4.44444e-05 	3.05907e-09 	0.843947 	0.0780266 	0.0780266 	-0.121329 	-1.18017e-05 	
0.121317 	0.113444 	0.00787262 	2.22209 	5.18499e-08 	8.89446 	11.1055 	
1.22219e-11 	8747.13 	1.31207 	2.18678 	0.3 	1.86667 	1.1904 	1.11111e-05 	
0.000135986 	9.06576e-05 	0.00164568 	21246.4 	0.0224243 	7.32617 	21244.2 	21244.2 	0 	
5.55556e-05 	3.73833e-09 	0.843947 	0.0780266 	0.0780266 	-0.121329 	-1.36978e-05 	
0.121315 	0.113444 	0.00787073 	2.22155 	6.33622e-08 	11.1163 	8.88372 	
1.22189e-11 	8747.13 	1.31207 	2.18678 	0.3 	1.86667 	1.19012 	1.11111e-05 	
0.000135986 	9.06576e-05 	0.0016456 	21230.3 	0.0348329 	4.7141 	21228.9 	21228.9 	0 	
6.66667e-05 	4.41745e-09 	0.843947 	0.0780266 	0.0780266 	-0.121329 	-1.51725e-05 	
0.121313 	0.113444 	0.00786927 	2.22114 	7.48725e-08 	13.3376 	6.66238 	
1.22166e-11 	8747.13 	1.31207 	2.18678 	0.3 	1.86667 	1.18989 	1.11111e-05 	
0.000135986 	9.06576e-05 	0.00164374 	21211.8 	0.0499934 	2.68308 	21211 	21211 	0 	
7.77778e-05 	5.09651e-09 	0.843947 	0.0780266 	0.0780266 	-0.121329 	-1.62258e-05 	
0.121312 	0.113444 	0.00786823 	2.22084 	8.63812e-08 	15.5586 	4.44139 	
1.2215e-11 	8747.13 	1.31207 	2.18678 	0.3 	1.86667 	1.18974 	1.11111e-05 	
0.000135986 	9.06576e-05 	0.00164466 	21232.3 	0.0679053 	1.23266 	21231.9 	21231.9 	0 	
8.88889e-05 	5.77731e-09 	0.843947 	0.0780266 	0.0780266 	-0.121329 	-1.68577e-05 	
0.121312 	0.113444 	0.00786761 	2.22066 	9.79002e-08 	17.7794 	2.22064 	
1.22141e-11 	8747.13 	1.31207 	2.18678 	0.3 	1.86667 	1.18964 	1.11111e-05 	
0.000135986 	9.06576e-05 	0.0016437 	21210.4 	0.0885683 	0.362526 	21210.2 	21210.2 	0 	
0.0001 	6.1608e-09 	0.843947 	0.0780266 	0.0780266 	-0.121329 	-1.70684e-05 	
0.121312 	0.113444 	0.00786742 	1.1103 	9.79002e-08 	19.4448 	0.555152 	
6.10688e-12 	4373.57 	0.656035 	1.09339 	0.3 	0.933333 	1.18961 	5.55556e-06 	
6.79932e-05 	4.53288e-05 	0.00164414 	21216.2 	0.0995876 	0.0725031 	21216.1 	21216.1 	0 	
ZONE T = "t = 1.1125e-07 [s]" I = 10 SOLUTIONTIME = 1.1125000000000E-07
0 	3.40216e-10 	0.843947 	0.0780266 	0.0780266 	-0.121329 	0 	
0.121329 	0.113444 	0.00788441 	1.11272 	5.76628e-09 	0.55636 	19.4436 	
8.62379e-12 	4373.57 	0.656035 	1.09339 	0.3 	0.933333 	1.1922 	5.55556e-06 	
6.79932e-05 	4.53288e-05 	0.00236588 	21261.1 	0.000330701 	20.0779 	21255 	21255 	0 	
1.11111e-05 	1.02033e-09 	0.843947 	0.0780266 	0.0780266 	-0.121329 	-3.58327e-06 	
0.121325 	0.113444 	0.00788082 	2.22442 	1.72935e-08 	2.22493 	17.7751 	
1.72397e-11 	8747.13 	1.31207 	2.18678 	0.3 	1.86667 	1.19165 	1.11111e-05 	
0.000135986 	9.06576e-05 	0.00236481 	21259.4 	0.00165259 	17.8525 	21254 	21254 	0 	
2.22222e-05 	1.70016e-09 	0.843947 	0.0780266 	0.0780266 	-0.121329 	-6.74453e-06 	
0.121322 	0.113444 	0.00787767 	2.22352 	2.88161e-08 	4.44891 	15.5511 	
1.72327e-11 	8747.13 	1.31207 	2.18678 	0.3 	1.86667 	1.19117 	1.11111e-05 	
0.000135986 	9.06576e-05 	0.0023639 	21249 	0.00561664 	13.6809 	21244.8 	21244.8 	0 	
3.33333e-05 	2.37973e-09 	0.843947 	0.0780266 	0.0780266 	-0.121329 	-9.48394e-06 	
0.121319 	0.113444 	0.00787493 	2.22275 	4.03347e-08 	6.67204 	13.328 	
1.72267e-11 	8747.13 	1.31207 	2.18678 	0.3 	1.86667 	1.19076 	1.11111e-05 	
0.000135986 	9.06576e-05 	0.0023635 	21247.3 	0.0122198 	10.0674 	21244.2 	21244.2 	0 	
4.44444e-05 	3.05912e-09 	0.843947 	0.0780266 	0.0780266 	-0.121329 	-1.18017e-05 	
0.121317 	0.113444 	0.00787262 	2.22209 	5.18499e-08 	8.89446 	11.1055 	
1.72216e-11 	8747.13 	1.31207 	2.18678 	0.3 	1.86667 	1.1904 	1.11111e-05 	
0.000135986 	9.06576e-05 	0.00236233 	21233.9 	0.0214598 	7.01106 	21231.8 	21231.8 	0 	
5.55556e-05 	3.73836e-09 	0.843947 	0.0780266 	0.0780266 	-0.121329 	-1.36978e-05 	
0.121315 	0.113444 	0.00787073 	2.22155 	6.33623e-08 	11.1163 	8.88372 	
1.72174e-11 	8747.13 	1.31207 	2.18678 	0.3 	1.86667 	1.19012 	1.11111e-05 	
0.000135986 	9.06576e-05 	0.00236173 	21218.6 	0.0333347 	4.51135 	21217.2 	21217.2 	0 	
6.66667e-05 	4.41749e-09 	0.843947 	0.0780266 	0.0780266 	-0.121329 	-1.51725e-05 	
0.121313 	0.113444 	0.00786927 	2.22114 	7.48725e-08 	13.3376 	6.66238 	
1.72142e-11 	8747.13 	1.31207 	2.18678 	0.3 	1.86667 	1.18989 	1.11111e-05 	
0.000135986 	9.06576e-05 	0.00236014 	21226.7 	0.0478432 	2.56768 	21225.9 	21225.9 	0 	
7.77778e-05 	5.09652e-09 	0.843947 	0.0780266 	0.0780266 	-0.121329 	-1.62258e-05 	
0.121312 	0.113444 	0.00786823 	2.22084 	8.63812e-08 	15.5586 	4.44139 	
1.72119e-11 	8747.13 	1.31207 	2.18678 	0.3 	1.86667 	1.18974 	1.11111e-05 	
0.000135986 	9.06576e-05 	0.00236048 	21209.3 	0.0649847 	1.17964 	21208.9 	21208.9 	0 	
8.88889e-05 	5.7782e-09 	0.843947 	0.0780266 	0.0780266 	-0.121329 	-1.68577e-05 	
0.121312 	0.113444 	0.00786761 	2.22066 	9.7905e-08 	17.7794 	2.22064 	
1.72106e-11 	8747.13 	1.31207 	2.18678 	0.3 	1.86667 	1.18964 	1.11111e-05 	
0.000135986 	9.06576e-05 	0.00235981 	21217.9 	0.0847589 	0.346934 	21217.8 	21217.8 	0 	
0.0001 	6.17808e-09 	0.843947 	0.0780266 	0.0780266 	-0.121329 	-1.70684e-05 	
0.121312 	0.113444 	0.00786742 	1.1103 	9.7905e-08 	19.4448 	0.555152 	
8.60506e-12 	4373.57 	0.656035 	1.09339 	0.3 	0.933333 	1.18961 	5.55556e-06 	
6.79932e-05 	4.53288e-05 	0.00236053 	21226.4 	0.0953043 	0.0693847 	21226.3 	21226.3 	0 	
ZONE T = "t = 1.61875e-07 [s]" I = 10 SOLUTIONTIME = 1.6187500000000E-07
0 	3.40218e-10 	0.843947 	0.0780266 	0.0780266 	-0.121329 	0 	
0.121329 	0.113444 	0.00788441 	1.11272 	5.76629e-09 	0.55636 	19.4436 	
1.23792e-11 	4373.57 	0.656035 	1.09339 	0.3 	0.933333 	1.1922 	5.55556e-06 	
6.79932e-05 	4.53288e-05 	0.0034427 	21270.6 	0.000320792 	19.4763 	21264.5 	21264.5 	0 	
1.11111e-05 	1.02032e-09 	0.843947 	0.0780266 	0.0780266 	-0.121329 	-3.58327e-06 	
0.121325 	0.113444 	0.00788082 	2.22442 	1.72935e-08 	2.22493 	17.7751 	
2.47471e-11 	8747.13 	1.31207 	2.18678 	0.3 	1.86667 	1.19165 	1.11111e-05 	
0.000135986 	9.06576e-05 	0.00344109 	21260 	0.00160308 	17.3176 	21254.6 	21254.6 	0 	
2.22222e-05 	1.70015e-09 	0.843947 	0.0780266 	0.0780266 	-0.121329 	-6.74453e-06 	
0.121322 	0.113444 	0.00787767 	2.22352 	2.88161e-08 	4.44891 	15.5511 	
2.47371e-11 	8747.13 	1.31207 	2.18678 	0.3 	1.86667 	1.19117 	1.11111e-05 	
0.000135986 	9.06576e-05 	0.00343962 	21248.9 	0.00544835 	13.271 	21244.8 	21244.8 	0 	
3.33333e-05 	2.37976e-09 	0.843947 	0.0780266 	0.0780266 	-0.121329 	-9.48394e-06 	
0.121319 	0.113444 	0.00787493 	2.22275 	4.03347e-08 	6.67204 	13.328 	
2.47285e-11 	8747.13 	1.31207 	2.18678 	0.3 	1.86667 	1.19076 	1.11111e-05 	
0.000135986 	9.06576e-05 	0.00343871 	21238.7 	0.0118537 	9.76572 	21235.6 	21235.6 	0 	
4.44444e-05 	3.05914e-09 	0.843947 	0.0780266 	0.0780266 	-0.121329 	-1.18017e-05 	
0.121317 	0.113444 	0.00787262 	2.22209 	5.18499e-08 	8.89446 	11.1055 	
2.47211e-11 	8747.13 	1.31207 	2.18678 	0.3 	1.86667 	1.1904 	1.11111e-05 	
0.000135986 	9.06576e-05 	0.00343719 	21231.9 	0.0208168 	6.80099 	21229.7 	21229.7 	0 	
5.55556e-05 	3.73837e-09 	0.843947 	0.0780266 	0.0780266 	-0.121329 	-1.36978e-05 	
0.121315 	0.113444 	0.00787073 	2.22155 	6.33623e-08 	11.1163 	8.88372 	
2.47152e-11 	8747.13 	1.31207 	2.18678 	0.3 	1.86667 	1.19012 	1.11111e-05 	
0.000135986 	9.06576e-05 	0.00343625 	21225.1 	0.0323359 	4.37617 	21223.8 	21223.8 	0 	
6.66667e-05 	4.41746e-09 	0.843947 	0.0780266 	0.0780266 	-0.121329 	-1.51725e-05 	
0.121313 	0.113444 	0.00786927 	2.22114 	7.48725e-08 	13.3376 	6.66238 	
2.47105e-11 	8747.13 	1.31207 	2.18678 	0.3 	1.86667 	1.18989 	1.11111e-05 	
0.000135986 	9.06576e-05 	0.00343436 	21219.1 	0.0464097 	2.49074 	21218.3 	21218.3 	0 	
7.77778e-05 	5.09648e-09 	0.843947 	0.0780266 	0.0780266 	-0.121329 	-1.62258e-05 	
0.121312 	0.113444 	0.00786823 	2.22084 	8.63812e-08 	15.5586 	4.44139 	
2.47072e-11 	8747.13 	1.31207 	2.18678 	0.3 	1.86667 	1.18974 	1.11111e-05 	
0.000135986 	9.06576e-05 	0.00343471 	21219.4 	0.0630375 	1.14429 	21219 	21219 	0 	
8.88889e-05 	5.77944e-09 	0.843947 	0.0780266 	0.0780266 	-0.121329 	-1.68577e-05 	
0.121312 	0.113444 	0.00786761 	2.22066 	9.79124e-08 	17.7794 	2.22064 	
2.47053e-11 	8747.13 	1.31207 	2.18678 	0.3 	1.86667 	1.18964 	1.11111e-05 	
0.000135986 	9.06576e-05 	0.00343374 	21213.5 	0.0822193 	0.336539 	21213.4 	21213.4 	0 	
0.0001 	6.20136e-09 	0.843947 	0.0780266 	0.0780266 	-0.121329 	-1.70684e-05 	
0.121312 	0.113444 	0.00786742 	1.1103 	9.79124e-08 	19.4448 	0.555152 	
1.23523e-11 	4373.57 	0.656035 	1.09339 	0.3 	0.933333 	1.18961 	5.55556e-06 	
6.79932e-05 	4.53288e-05 	0.00343449 	21213.9 	0.0924487 	0.0673057 	21213.9 	21213.9 	0 	
ZONE T = "t = 2.37813e-07 [s]" I = 10 SOLUTIONTIME = 2.3781250000000E-07
0 	3.40217e-10 	0.843947 	0.0780266 	0.0780266 	-0.121329 	0 	
0.121329 	0.113444 	0.00788441 	1.11272 	5.7663e-09 	0.55636 	19.4436 	
1.80124e-11 	4373.57 	0.656035 	1.09339 	0.3 	0.933333 	1.1922 	5.55556e-06 	
6.79932e-05 	4.53288e-05 	0.00505793 	21270.5 	0.000314186 	19.0752 	21264.4 	21264.4 	0 	
1.11111e-05 	1.02033e-09 	0.843947 	0.0780266 	0.0780266 	-0.121329 	-3.58327e-06 	
0.121325 	0.113444 	0.00788082 	2.22442 	1.72936e-08 	2.22493 	17.7751 	
3.60082e-11 	8747.13 	1.31207 	2.18678 	0.3 	1.86667 	1.19165 	1.11111e-05 	
0.000135986 	9.06576e-05 	0.00505541 	21258.5 	0.00157007 	16.961 	21253.1 	21253.1 	0 	
2.22222e-05 	1.70017e-09 	0.843947 	0.0780266 	0.0780266 	-0.121329 	-6.74453e-06 	
0.121322 	0.113444 	0.00787767 	2.22352 	2.88162e-08 	4.44891 	15.5511 	
3.59937e-11 	8747.13 	1.31207 	2.18678 	0.3 	1.86667 	1.19117 	1.11111e-05 	
0.000135986 	9.06576e-05 	0.00505315 	21248.1 	0.00533616 	12.9977 	21243.9 	21243.9 	0 	
3.33333e-05 	2.37976e-09 	0.843947 	0.0780266 	0.0780266 	-0.121329 	-9.48394e-06 	