TITLE = "Solution on Domain BulkDomain1D_2"
VARIABLES = "x [m]"  
"Vel_axial(0)" 	"MF_sp(ECDMC)" 	"MF_sp(Li+)" 	"MF_sp(PF6-)" 	"Volt(Electroly)" 	"Volt(CathodeVo)" 	
"Potential Drop Electrode-Electrolyte [V]" 	"Surf_0 Equilibrium Potential Drop Electrode-Electrolyte [V]" 	"Overpotential_0 [V]" 	"Current Source [A/m^2]" 	"Li+ flux [kmol/m^2/s]" 	"Electrolyte Current [A/m^2]" 	"Electrode Current [A/m^2]" 	
"Capacity discharged [A-s]" 	"Depth of discharge [-]" 	"Capacity remaining [A-s]" 	"Initial capacity [A-s]" 	"Porosity []" 	"Surface Area [m2/m2] (area per area)" 	"Specific current (per particle area) [A/m^2]" 	"Control volume thickness [m]" 	
"Moles LiCoO2 [mol/m^2] (per electrode area)" 	"Moles CoO2 [mol/m^2] (per electrode area)" 	"qHeat_accum [J/m3]" 	"qHeat_step [W/m3]" 	"Joule_Lyte [W/m3]" 	"Joule_Solid [W/m3]" 	"electrodHeat [W/m3]" 	"OverpotHeat [W/m3]" 	"deltaSHeat [W/m3]" 	

ZONE T = "t = 0 [s]" I = 10 SOLUTIONTIME = 0.0000000000000E+00
0.000125 	0 	0.92 	0.04 	0.04 	-0.07 	3.8 	
0 	0 	0 	0 	0 	46.4803 	0 	
0 	0 	0 	0 	0.3 	1.16667 	-79.6804 	5.55556e-06 	
8.75398e-05 	0.000177732 	0 	0.0 	 0.0 	 0.0 	 0.0 	 0.0 	 0.0 	 
0.000136111 	0 	0.92 	0.04 	0.04 	-0.07 	3.8 	
0 	0 	0 	0 	0 	0 	-0 	
0 	0 	0 	0 	0.3 	2.33333 	-79.6804 	1.11111e-05 	
0.00017508 	0.000355465 	0 	0.0 	 0.0 	 0.0 	 0.0 	 0.0 	 0.0 	 
0.000147222 	0 	0.92 	0.04 	0.04 	-0.07 	3.8 	
0 	0 	0 	0 	0 	0 	-0 	
0 	0 	0 	0 	0.3 	2.33333 	-79.6804 	1.11111e-05 	
0.00017508 	0.000355465 	0 	0.0 	 0.0 	 0.0 	 0.0 	 0.0 	 0.0 	 
0.000158333 	0 	0.92 	0.04 	0.04 	-0.07 	3.8 	
0 	0 	0 	0 	0 	0 	-0 	
0 	0 	0 	0 	0.3 	2.33333 	-79.6804 	1.11111e-05 	
0.00017508 	0.000355465 	0 	0.0 	 0.0 	 0.0 	 0.0 	 0.0 	 0.0 	 
0.000169444 	0 	0.92 	0.04 	0.04 	-0.07 	3.8 	
0 	0 	0 	0 	0 	0 	-0 	
0 	0 	0 	0 	0.3 	2.33333 	-79.6804 	1.11111e-05 	
0.00017508 	0.000355465 	0 	0.0 	 0.0 	 0.0 	 0.0 	 0.0 	 0.0 	 
0.000180556 	0 	0.92 	0.04 	0.04 	-0.07 	3.8 	
0 	0 	0 	0 	0 	0 	-0 	
0 	0 	0 	0 	0.3 	2.33333 	-79.6804 	1.11111e-05 	
0.00017508 	0.000355465 	0 	0.0 	 0.0 	 0.0 	 0.0 	 0.0 	 0.0 	 
0.000191667 	0 	0.92 	0.04 	0.04 	-0.07 	3.8 	
0 	0 	0 	0 	0 	0 	-0 	
0 	0 	0 	0 	0.3 	2.33333 	-79.6804 	1.11111e-05 	
0.00017508 	0.000355465 	0 	0.0 	 0.0 	 0.0 	 0.0 	 0.0 	 0.0 	 
0.000202778 	0 	0.92 	0.04 	0.04 	-0.07 	3.8 	
0 	0 	0 	0 	0 	0 	-0 	
0 	0 	0 	0 	0.3 	2.33333 	-79.6804 	1.11111e-05 	
0.00017508 	0.000355465 	0 	0.0 	 0.0 	 0.0 	 0.0 	 0.0 	 0.0 	 
0.000213889 	0 	0.92 	0.04 	0.04 	-0.07 	3.8 	
0 	0 	0 	0 	0 	0 	-0 	
0 	0 	0 	0 	0.3 	2.33333 	-79.6804 	1.11111e-05 	
0.00017508 	0.000355465 	0 	0.0 	 0.0 	 0.0 	 0.0 	 0.0 	 0.0 	 
0.000225 	0 	0.92 	0.04 	0.04 	-0.07 	3.8 	
0 	0 	0 	0 	0 	0 	46.4803 	
0 	0 	0 	0 	0.3 	1.16667 	-79.6804 	5.55556e-06 	
8.75398e-05 	0.000177732 	0 	0.0 	 0.0 	 0.0 	 0.0 	 0.0 	 0.0 	 
ZONE T = "t = 1e-08 [s]" I = 10 SOLUTIONTIME = 1.0000000000000E-08
0.000125 	1.31167e-08 	0.92 	0.04 	0.04 	-0.125572 	3.99918 	
3.87 	4.15572 	-0.285721 	-92.9605 	-0 	19.4446 	0.555487 	
-0 	8446.31 	42.9794 	64.1484 	0.3 	1.16667 	-0.952363 	5.55556e-06 	
8.75398e-05 	0.000177732 	9.90329e-05 	9903.29 	0.0484249 	0.0176323 	9903.22 	9903.22 	0 	
0.000136111 	1.15737e-08 	0.92 	0.04 	0.04 	-0.125572 	3.99918 	
3.87 	4.15572 	-0.285721 	-185.921 	-0 	17.778 	2.22195 	
-0 	16892.6 	85.9589 	128.297 	0.3 	2.33333 	-0.952366 	1.11111e-05 	
0.00017508 	0.000355465 	0.000100547 	10054.7 	0.0430636 	0.088162 	10054.6 	10054.6 	0 	
0.000147222 	1.00308e-08 	0.92 	0.04 	0.04 	-0.125572 	3.99918 	
3.87 	4.15572 	-0.285721 	-185.921 	-0 	15.5561 	4.44392 	
-0 	16892.6 	85.9589 	128.297 	0.3 	2.33333 	-0.952379 	1.11111e-05 	
0.00017508 	0.000355465 	9.889e-05 	9889 	0.033011 	0.299754 	9888.67 	9888.67 	0 	
0.000158333 	8.48776e-09 	0.92 	0.04 	0.04 	-0.125572 	3.99918 	
3.87 	4.15572 	-0.285721 	-185.921 	-0 	13.3341 	6.66593 	
-0 	16892.6 	85.9589 	128.297 	0.3 	2.33333 	-0.952401 	1.11111e-05 	
0.00017508 	0.000355465 	9.87015e-05 	9870.15 	0.0242985 	0.652415 	9869.47 	9869.47 	0 	
0.000169444 	6.94471e-09 	0.92 	0.04 	0.04 	-0.125572 	3.99918 	
3.87 	4.15572 	-0.285721 	-185.921 	-0 	11.112 	8.888 	
-0 	16892.6 	85.9589 	128.297 	0.3 	2.33333 	-0.952431 	1.11111e-05 	
0.00017508 	0.000355465 	9.99817e-05 	9998.17 	0.016926 	1.14616 	9997.01 	9997.01 	0 	
0.000180556 	5.40161e-09 	0.92 	0.04 	0.04 	-0.125572 	3.99918 	
3.87 	4.15572 	-0.285721 	-185.921 	-0 	8.88984 	11.1102 	
-0 	16892.6 	85.9589 	128.297 	0.3 	2.33333 	-0.952471 	1.11111e-05 	
0.00017508 	0.000355465 	9.86323e-05 	9863.23 	0.0108935 	1.781 	9861.44 	9861.44 	0 	
0.000191667 	3.85842e-09 	0.92 	0.04 	0.04 	-0.125572 	3.99917 	
3.87 	4.15572 	-0.285721 	-185.921 	-0 	6.66759 	13.3324 	
-0 	16892.6 	85.9589 	128.297 	0.3 	2.33333 	-0.952519 	1.11111e-05 	
0.00017508 	0.000355465 	9.97564e-05 	9975.64 	0.00620131 	2.55697 	9973.08 	9973.08 	0 	
0.000202778 	2.31514e-09 	0.92 	0.04 	0.04 	-0.125572 	3.99917 	
3.87 	4.15572 	-0.285721 	-185.921 	-0 	4.44521 	15.5548 	
-0 	16892.6 	85.9589 	128.297 	0.3 	2.33333 	-0.952576 	1.11111e-05 	
0.00017508 	0.000355465 	9.84821e-05 	9848.21 	0.00284944 	3.47409 	9844.73 	9844.73 	0 	
0.000213889 	7.71754e-10 	0.92 	0.04 	0.04 	-0.125572 	3.99917 	
3.87 	4.15572 	-0.285721 	-185.921 	-0 	2.22269 	17.7773 	
-0 	16892.6 	85.9589 	128.297 	0.3 	2.33333 	-0.952642 	1.11111e-05 	
0.00017508 	0.000355465 	0.000100235 	10023.5 	0.000838126 	4.5324 	10019 	10019 	0 	
0.000225 	0 	0.92 	0.04 	0.04 	-0.125572 	3.99917 	
3.87 	4.15572 	-0.285721 	-92.9605 	-0 	0.555694 	19.4444 	
-0 	8446.31 	42.9794 	64.1484 	0.3 	1.16667 	-0.952717 	5.55556e-06 	
8.75398e-05 	0.000177732 	9.90735e-05 	9907.35 	0.000167641 	5.09685 	9902.25 	9902.25 	0 	
ZONE T = "t = 2e-08 [s]" I = 10 SOLUTIONTIME = 2.0000000000000E-08
0.000125 	1.31166e-08 	0.92 	0.04 	0.04 	-0.125227 	3.9676 	
4.12475 	4.15572 	-0.030968 	-1.11109 	9.78876e-08 	19.4445 	0.555495 	
2.78472e-11 	8446.31 	42.9794 	64.1484 	0.3 	1.16667 	-0.952317 	5.55556e-06 	
8.75398e-05 	0.000177732 	0.000224771 	12573.9 	0.0484248 	0.0176328 	12573.8 	12573.8 	0 	
0.000136111 	1.15737e-08 	0.92 	0.04 	0.04 	-0.125227 	3.9676 	
4.12475 	4.15572 	-0.0309681 	-2.22219 	8.6371e-08 	17.778 	2.22198 	
5.56947e-11 	16892.6 	85.9589 	128.297 	0.3 	2.33333 	-0.95232 	1.11111e-05 	
0.00017508 	0.000355465 	0.000226533 	12598.5 	0.0430634 	0.0881646 	12598.4 	12598.4 	0 	
0.000147222 	1.00307e-08 	0.92 	0.04 	0.04 	-0.125228 	3.9676 	
4.12475 	4.15572 	-0.0309686 	-2.22222 	7.48564e-08 	15.556 	4.44399 	
5.56954e-11 	16892.6 	85.9589 	128.297 	0.3 	2.33333 	-0.952331 	1.11111e-05 	
0.00017508 	0.000355465 	0.000224504 	12561.4 	0.0330108 	0.299762 	12561.1 	12561.1 	0 	
0.000158333 	8.48769e-09 	0.92 	0.04 	0.04 	-0.125228 	3.9676 	
4.12475 	4.15572 	-0.0309695 	-2.22227 	6.33415e-08 	13.334 	6.66602 	
5.56967e-11 	16892.6 	85.9589 	128.297 	0.3 	2.33333 	-0.95235 	1.11111e-05 	
0.00017508 	0.000355465 	0.000224151 	12544.9 	0.0242982 	0.652432 	12544.2 	12544.2 	0 	
0.000169444 	6.94464e-09 	0.92 	0.04 	0.04 	-0.125228 	3.9676 	
4.12475 	4.15572 	-0.0309707 	-2.22234 	5.18262e-08 	11.1119 	8.88811 	
5.56985e-11 	16892.6 	85.9589 	128.297 	0.3 	2.33333 	-0.952377 	1.11111e-05 	
0.00017508 	0.000355465 	0.000226283 	12630.1 	0.0169257 	1.14619 	12628.9 	12628.9 	0 	
0.000180556 	5.40153e-09 	0.92 	0.04 	0.04 	-0.125228 	3.9676 	
4.12475 	4.15572 	-0.0309723 	-2.22243 	4.03105e-08 	8.88973 	11.1103 	
5.57008e-11 	16892.6 	85.9589 	128.297 	0.3 	2.33333 	-0.952411 	1.11111e-05 	
0.00017508 	0.000355465 	0.000224361 	12572.9 	0.0108933 	1.78104 	12571.1 	12571.1 	0 	
0.000191667 	3.85835e-09 	0.92 	0.04 	0.04 	-0.125228 	3.9676 	
4.12475 	4.15572 	-0.0309742 	-2.22254 	2.87942e-08 	6.66748 	13.3325 	
5.57036e-11 	16892.6 	85.9589 	128.297 	0.3 	2.33333 	-0.952454 	1.11111e-05 	
0.00017508 	0.000355465 	0.000226204 	12644.8 	0.00620111 	2.55701 	12642.2 	12642.2 	0 	
0.000202778 	2.31509e-09 	0.92 	0.04 	0.04 	-0.125228 	3.96759 	
4.12474 	4.15572 	-0.0309765 	-2.22268 	1.72772e-08 	4.44512 	15.5549 	
5.5707e-11 	16892.6 	85.9589 	128.297 	0.3 	2.33333 	-0.952504 	1.11111e-05 	
0.00017508 	0.000355465 	0.000224226 	12574.4 	0.00284932 	3.47413 	12570.9 	12570.9 	0 	
0.000213889 	7.71731e-10 	0.92 	0.04 	0.04 	-0.125228 	3.96759 	
4.12474 	4.15572 	-0.0309791 	-2.22283 	5.75936e-09 	2.22263 	17.7774 	
5.57108e-11 	16892.6 	85.9589 	128.297 	0.3 	2.33333 	-0.952562 	1.11111e-05 	
0.00017508 	0.000355465 	0.000226055 	12582 	0.000838085 	4.53243 	12577.5 	12577.5 	0 	
0.000225 	0 	0.92 	0.04 	0.04 	-0.125228 	3.96759 	
4.12474 	4.15572 	-0.0309821 	-1.1115 	5.75936e-09 	0.555677 	19.4443 	
2.78576e-11 	8446.31 	42.9794 	64.1484 	0.3 	1.16667 	-0.952628 	5.55556e-06 	
8.75398e-05 	0.000177732 	0.000225338 	12626.5 	0.000167631 	5.09687 	12621.4 	12621.4 	0 	
ZONE T = "t = 3e-08 [s]" I = 10 SOLUTIONTIME = 3.0000000000000E-08
0.000125 	1.31166e-08 	0.92 	0.04 	0.04 	-0.125227 	3.9676 	
4.09283 	4.15572 	-0.0628919 	-1.11104 	9.78897e-08 	19.4445 	0.555495 	
5.56931e-11 	8446.31 	42.9794 	64.1484 	0.3 	1.16667 	-0.952317 	5.55556e-06 	
8.75398e-05 	0.000177732 	0.000350408 	12563.7 	0.0484248 	0.0176328 	12563.6 	12563.6 	0 	
0.000136111 	1.15737e-08 	0.92 	0.04 	0.04 	-0.125227 	3.9676 	
4.09283 	4.15572 	-0.062892 	-2.22208 	8.63708e-08 	17.778 	2.22198 	
1.11387e-10 	16892.6 	85.9589 	128.297 	0.3 	2.33333 	-0.952321 	1.11111e-05 	
0.00017508 	0.000355465 	0.000352221 	12568.8 	0.0430634 	0.0881646 	12568.7 	12568.7 	0 	
0.000147222 	1.00307e-08 	0.92 	0.04 	0.04 	-0.125228 	3.9676 	
4.09283 	4.15572 	-0.0628925 	-2.22211 	7.4856e-08 	15.556 	4.44399 	
1.11388e-10 	16892.6 	85.9589 	128.297 	0.3 	2.33333 	-0.952332 	1.11111e-05 	
0.00017508 	0.000355465 	0.000350016 	12551.2 	0.0330108 	0.299762 	12550.9 	12550.9 	0 	
0.000158333 	8.48769e-09 	0.92 	0.04 	0.04 	-0.125228 	3.9676 	
4.09283 	4.15572 	-0.0628934 	-2.22215 	6.3341e-08 	13.334 	6.66602 	
1.1139e-10 	16892.6 	85.9589 	128.297 	0.3 	2.33333 	-0.952351 	1.11111e-05 	
0.00017508 	0.000355465 	0.000349498 	12534.7 	0.0242982 	0.652432 	12534 	12534 	0 	
0.000169444 	6.94464e-09 	0.92 	0.04 	0.04 	-0.125228 	3.9676 	
4.09283 	4.15572 	-0.0628946 	-2.22221 	5.18256e-08 	11.1119 	8.88811 	
1.11394e-10 	16892.6 	85.9589 	128.297 	0.3 	2.33333 	-0.952377 	1.11111e-05 	
0.00017508 	0.000355465 	0.000352262 	12598 	0.0169257 	1.14619 	12596.8 	12596.8 	0 	
0.000180556 	5.40153e-09 	0.92 	0.04 	0.04 	-0.125228 	3.9676 	
4.09282 	4.15572 	-0.0628962 	-2.22229 	4.03099e-08 	8.88973 	11.1103 	
1.11398e-10 	16892.6 	85.9589 	128.297 	0.3 	2.33333 	-0.952412 	1.11111e-05 	
0.00017508 	0.000355465 	0.000350279 	12591.8 	0.0108933 	1.78104 	12590 	12590 	0 	
0.000191667 	3.85835e-09 	0.92 	0.04 	0.04 	-0.125228 	3.9676 	
4.09282 	4.15572 	-0.0628981 	-2.22239 	2.87936e-08 	6.66748 	13.3325 	
1.11403e-10 	16892.6 	85.9589 	128.297 	0.3 	2.33333 	-0.952455 	1.11111e-05 	
0.00017508 	0.000355465 	0.000352602 	12639.8 	0.00620111 	2.55701 	12637.2 	12637.2 	0 	
0.000202778 	2.31509e-09 	0.92 	0.04 	0.04 	-0.125228 	3.96759 	
4.09282 	4.15572 	-0.0629004 	-2.22251 	1.72768e-08 	4.44512 	15.5549 	
1.1141e-10 	16892.6 	85.9589 	128.297 	0.3 	2.33333 	-0.952505 	1.11111e-05 	
0.00017508 	0.000355465 	0.000349927 	12570.1 	0.00284932 	3.47413 	12566.7 	12566.7 	0 	
0.000213889 	7.71731e-10 	0.92 	0.04 	0.04 	-0.125228 	3.96759 	
4.09282 	4.15572 	-0.062903 	-2.22265 	5.75919e-09 	2.22263 	17.7774 	
1.11417e-10 	16892.6 	85.9589 	128.297 	0.3 	2.33333 	-0.952563 	1.11111e-05 	
0.00017508 	0.000355465 	0.000352132 	12607.7 	0.000838085 	4.53243 	12603.2 	12603.2 	0 	
0.000225 	0 	0.92 	0.04 	0.04 	-0.125228 	3.96759 	
4.09281 	4.15572 	-0.062906 	-1.1114 	5.75919e-09 	0.555677 	19.4443 	
5.57126e-11 	8446.31 	42.9794 	64.1484 	0.3 	1.16667 	-0.952629 	5.55556e-06 	
8.75398e-05 	0.000177732 	0.000351616 	12627.8 	0.000167631 	5.09687 	12622.7 	12622.7 	0 	
ZONE T = "t = 4e-08 [s]" I = 10 SOLUTIONTIME = 4.0000000000000E-08
0.000125 	1.31166e-08 	0.92 	0.04 	0.04 	-0.125227 	3.9676 	
4.09283 	4.15572 	-0.0628919 	-1.11104 	9.7892e-08 	19.4445 	0.555495 	
8.35391e-11 	8446.31 	42.9794 	64.1484 	0.3 	1.16667 	-0.952277 	5.55556e-06 	
8.75398e-05 	0.000177732 	0.000476598 	12619 	0.0484248 	0.0176328 	12619 	12619 	0 	
0.000136111 	1.15737e-08 	0.92 	0.04 	0.04 	-0.125227 	3.9676 	
4.09283 	4.15572 	-0.062892 	-2.22208 	8.63708e-08 	17.778 	2.22198 	
1.67079e-10 	16892.6 	85.9589 	128.297 	0.3 	2.33333 	-0.952281 	1.11111e-05 	
0.00017508 	0.000355465 	0.000478187 	12596.7 	0.0430634 	0.0881646 	12596.5 	12596.5 	0 	
0.000147222 	1.00307e-08 	0.92 	0.04 	0.04 	-0.125228 	3.9676 	
4.09283 	4.15572 	-0.0628925 	-2.22211 	7.4856e-08 	15.556 	4.44399 	
1.67081e-10 	16892.6 	85.9589 	128.297 	0.3 	2.33333 	-0.952292 	1.11111e-05 	
0.00017508 	0.000355465 	0.000476081 	12606.5 	0.0330108 	0.299762 	12606.2 	12606.2 	0 	
0.000158333 	8.48769e-09 	0.92 	0.04 	0.04 	-0.125228 	3.9676 	
4.09283 	4.15572 	-0.0628934 	-2.22215 	6.3341e-08 	13.334 	6.66602 	
1.67084e-10 	16892.6 	85.9589 	128.297 	0.3 	2.33333 	-0.952311 	1.11111e-05 	
0.00017508 	0.000355465 	0.000475399 	12590.1 	0.0242982 	0.652432 	12589.4 	12589.4 	0 	
0.000169444 	6.94464e-09 	0.92 	0.04 	0.04 	-0.125228 	3.9676 	
4.09283 	4.15572 	-0.0628946 	-2.22221 	5.18256e-08 	11.1119 	8.88811 	
1.67089e-10 	16892.6 	85.9589 	128.297 	0.3 	2.33333 	-0.952337 	1.11111e-05 	
0.00017508 	0.000355465 	0.00047801 	12574.8 	0.0169257 	1.14619 	12573.6 	12573.6 	0 	
0.000180556 	5.40153e-09 	0.92 	0.04 	0.04 	-0.125228 	3.9676 	
4.09282 	4.15572 	-0.0628962 	-2.22229 	4.03099e-08 	8.88973 	11.1103 	
1.67096e-10 	16892.6 	85.9589 	128.297 	0.3 	2.33333 	-0.952372 	1.11111e-05 	
0.00017508 	0.000355465 	0.000476236 	12595.7 	0.0108933 	1.78104 	12593.9 	12593.9 	0 	
0.000191667 	3.85835e-09 	0.92 	0.04 	0.04 	-0.125228 	3.9676 	
4.09282 	4.15572 	-0.0628981 	-2.22239 	2.87936e-08 	6.66748 	13.3325 	
1.67103e-10 	16892.6 	85.9589 	128.297 	0.3 	2.33333 	-0.952415 	1.11111e-05 	
0.00017508 	0.000355465 	0.00047829 	12568.8 	0.00620111 	2.55701 	12566.2 	12566.2 	0 	
0.000202778 	2.31509e-09 	0.92 	0.04 	0.04 	-0.125228 	3.96759 	
4.09282 	4.15572 	-0.0629004 	-2.22251 	1.72768e-08 	4.44512 	15.5549 	
1.67113e-10 	16892.6 	85.9589 	128.297 	0.3 	2.33333 	-0.952465 	1.11111e-05 	
0.00017508 	0.000355465 	0.00047623 	12630.3 	0.00284932 	3.47413 	12626.8 	12626.8 	0 	
0.000213889 	7.71731e-10 	0.92 	0.04 	0.04 	-0.125228 	3.96759 	
4.09282 	4.15572 	-0.062903 	-2.22265 	5.75919e-09 	2.22263 	17.7774 	
1.67123e-10 	16892.6 	85.9589 	128.297 	0.3 	2.33333 	-0.952523 	1.11111e-05 	
0.00017508 	0.000355465 	0.000477798 	12566.6 	0.000838085 	4.53243 	12562 	12562 	0 	
0.000225 	0 	0.92 	0.04 	0.04 	-0.125228 	3.96759 	
4.09281 	4.15572 	-0.062906 	-1.1114 	5.75919e-09 	0.555677 	19.4443 	
8.35677e-11 	8446.31 	42.9794 	64.1484 	0.3 	1.16667 	-0.952589 	5.55556e-06 	
8.75398e-05 	0.000177732 	0.000477475 	12585.9 	0.000167631 	5.09687 	12580.8 	12580.8 	0 	
ZONE T = "t = 5.5e-08 [s]" I = 10 SOLUTIONTIME = 5.5000000000000E-08
0.000125 	1.31166e-08 	0.92 	0.04 	0.04 	-0.125227 	3.9676 	
4.09283 	4.15572 	-0.0628901 	-1.11099 	9.78942e-08 	19.4445 	0.555495 	
1.11384e-10 	8446.31 	42.9794 	64.1484 	0.3 	1.16667 	-0.952277 	5.55556e-06 	
8.75398e-05 	0.000177732 	0.000665278 	12578.6 	0.0484248 	0.0176328 	12578.6 	12578.6 	0 	
0.000136111 	1.15737e-08 	0.92 	0.04 	0.04 	-0.125227 	3.9676 	
4.09283 	4.15572 	-0.0628902 	-2.22199 	8.63708e-08 	17.778 	2.22198 	
2.22768e-10 	16892.6 	85.9589 	128.297 	0.3 	2.33333 	-0.952281 	1.11111e-05 	
0.00017508 	0.000355465 	0.000667068 	12592 	0.0430634 	0.0881646 	12591.9 	12591.9 	0 	
0.000147222 	1.00307e-08 	0.92 	0.04 	0.04 	-0.125228 	3.9676 	
4.09283 	4.15572 	-0.0628907 	-2.22201 	7.4856e-08 	15.556 	4.44399 	
2.22771e-10 	16892.6 	85.9589 	128.297 	0.3 	2.33333 	-0.952292 	1.11111e-05 	
0.00017508 	0.000355465 	0.000664589 	12567.2 	0.0330108 	0.299762 	12566.9 	12566.9 	0 	
0.000158333 	8.48769e-09 	0.92 	0.04 	0.04 	-0.125228 	3.9676 	
4.09283 	4.15572 	-0.0628916 	-2.22206 	6.3341e-08 	13.334 	6.66602 	
2.22776e-10 	16892.6 	85.9589 	128.297 	0.3 	2.33333 	-0.952311 	1.11111e-05 	
0.00017508 	0.000355465 	0.000664134 	12582.4 	0.0242982 	0.652432 	12581.7 	12581.7 	0 	
0.000169444 	6.94464e-09 	0.92 	0.04 	0.04 	-0.125228 	3.9676 	
4.09283 	4.15572 	-0.0628928 	-2.22212 	5.18256e-08 	11.1119 	8.88811 	
2.22782e-10 	16892.6 	85.9589 	128.297 	0.3 	2.33333 	-0.952337 	1.11111e-05 	
0.00017508 	0.000355465 	0.000666384 	12558.3 	0.0169257 	1.14619 	12557.1 	12557.1 	0 	
0.000180556 	5.40153e-09 	0.92 	0.04 	0.04 	-0.125228 	3.9676 	
4.09283 	4.15572 	-0.0628944 	-2.2222 	4.03099e-08 	8.88973 	11.1103 	
2.22791e-10 	16892.6 	85.9589 	128.297 	0.3 	2.33333 	-0.952372 	1.11111e-05 	
0.00017508 	0.000355465 	0.000665487 	12616.7 	0.0108933 	1.78104 	12614.9 	12614.9 	0 	
0.000191667 	3.85835e-09 	0.92 	0.04 	0.04 	-0.125228 	3.9676 	
4.09282 	4.15572 	-0.0628963 	-2.2223 	2.87936e-08 	6.66748 	13.3325 	
2.22801e-10 	16892.6 	85.9589 	128.297 	0.3 	2.33333 	-0.952415 	1.11111e-05 	
0.00017508 	0.000355465 	0.000666951 	12577.4 	0.00620111 	2.55701 	12574.8 	12574.8 	0 	
0.000202778 	2.31509e-09 	0.92 	0.04 	0.04 	-0.125228 	3.96759 	
4.09282 	4.15572 	-0.0628986 	-2.22242 	1.72768e-08 	4.44512 	15.5549 	
2.22813e-10 	16892.6 	85.9589 	128.297 	0.3 	2.33333 	-0.952465 	1.11111e-05 	
0.00017508 	0.000355465 	0.000664785 	12570.3 	0.00284932 	3.47413 	12566.9 	12566.9 	0 	
0.000213889 	7.71731e-10 	0.92 	0.04 	0.04 	-0.125228 	3.96759 	
4.09282 	4.15572 	-0.0629012 	-2.22255 	5.75919e-09 	2.22263 	17.7774 	
2.22827e-10 	16892.6 	85.9589 	128.297 	0.3 	2.33333 	-0.952523 	1.11111e-05 	
0.00017508 	0.000355465 	0.000666376 	12571.9 	0.000838085 	4.53243 	12567.4 	12567.4 	0 	
0.000225 	0 	0.92 	0.04 	0.04 	-0.125228 	3.96759 	
4.09282 	4.15572 	-0.0629042 	-1.11135 	5.75919e-09 	0.555677 	19.4443 	
1.11422e-10 	8446.31 	42.9794 	64.1484 	0.3 	1.16667 	-0.952589 	5.55556e-06 	
8.75398e-05 	0.000177732 	0.000666144 	12577.9 	0.000167631 	5.09687 	12572.8 	12572.8 	0 	
ZONE T = "t = 7.75e-08 [s]" I = 10 SOLUTIONTIME = 7.7500000000000E-08
0.000125 	1.31166e-08 	0.92 	0.04 	0.04 	-0.125227 	3.9676 	
4.09283 	4.15572 	-0.0628901 	-1.11099 	9.78976e-08 	19.4445 	0.555495 	
1.53151e-10 	8446.31 	42.9794 	64.1484 	0.3 	1.16667 	-0.952277 	5.55556e-06 	
8.75398e-05 	0.000177732 	0.000948591 	12591.7 	0.0484248 	0.0176328 	12591.7 	12591.7 	0 	
0.000136111 	1.15737e-08 	0.92 	0.04 	0.04 	-0.125227 	3.9676 	
4.09283 	4.15572 	-0.0628902 	-2.22199 	8.63708e-08 	17.778 	2.22198 	
3.06303e-10 	16892.6 	85.9589 	128.297 	0.3 	2.33333 	-0.952281 	1.11111e-05 	
0.00017508 	0.000355465 	0.000949844 	12567.8 	0.0430634 	0.0881646 	12567.7 	12567.7 	0 	
0.000147222 	1.00307e-08 	0.92 	0.04 	0.04 	-0.125228 	3.9676 	
4.09283 	4.15572 	-0.0628907 	-2.22201 	7.4856e-08 	15.556 	4.44399 	
3.06307e-10 	16892.6 	85.9589 	128.297 	0.3 	2.33333 	-0.952292 	1.11111e-05 	
0.00017508 	0.000355465 	0.000947427 	12570.6 	0.0330108 	0.299762 	12570.2 	12570.2 	0 	
0.000158333 	8.48769e-09 	0.92 	0.04 	0.04 	-0.125228 	3.9676 	
4.09283 	4.15572 	-0.0628916 	-2.22206 	6.3341e-08 	13.334 	6.66602 	
3.06313e-10 	16892.6 	85.9589 	128.297 	0.3 	2.33333 	-0.952311 	1.11111e-05 	
0.00017508 	0.000355465 	0.000947348 	12587.3 	0.0242982 	0.652432 	12586.6 	12586.6 	0 	
0.000169444 	6.94464e-09 	0.92 	0.04 	0.04 	-0.125228 	3.9676 	
4.09283 	4.15572 	-0.0628928 	-2.22212 	5.18256e-08 	11.1119 	8.88811 	
3.06322e-10 	16892.6 	85.9589 	128.297 	0.3 	2.33333 	-0.952337 	1.11111e-05 	
0.00017508 	0.000355465 	0.000949106 	12565.4 	0.0169257 	1.14619 	12564.2 	12564.2 	0 	
0.000180556 	5.40153e-09 	0.92 	0.04 	0.04 	-0.125228 	3.9676 	
4.09283 	4.15572 	-0.0628944 	-2.2222 	4.03099e-08 	8.88973 	11.1103 	
3.06333e-10 	16892.6 	85.9589 	128.297 	0.3 	2.33333 	-0.952372 	1.11111e-05 	
0.00017508 	0.000355465 	0.000949106 	12605.3 	0.0108933 	1.78104 	12603.5 	12603.5 	0 	
0.000191667 	3.85835e-09 	0.92 	0.04 	0.04 	-0.125228 	3.9676 	
4.09282 	4.15572 	-0.0628963 	-2.2223 	2.87936e-08 	6.66748 	13.3325 	
3.06347e-10 	16892.6 	85.9589 	128.297 	0.3 	2.33333 	-0.952415 	1.11111e-05 	
0.00017508 	0.000355465 	0.00094942 	12554.2 	0.00620111 	2.55701 	12551.6 	12551.6 	0 	
0.000202778 	2.31509e-09 	0.92 	0.04 	0.04 	-0.125228 	3.96759 	
4.09282 	4.15572 	-0.0628986 	-2.22242 	1.72768e-08 	4.44512 	15.5549 	
3.06364e-10 	16892.6 	85.9589 	128.297 	0.3 	2.33333 	-0.952465 	1.11111e-05 	
0.00017508 	0.000355465 	0.000948084 	12591.1 	0.00284932 	3.47413 	12587.6 	12587.6 	0 	
0.000213889 	7.71731e-10 	0.92 	0.04 	0.04 	-0.125228 	3.96759 	
4.09282 	4.15572 	-0.0629012 	-2.22255 	5.75919e-09 	2.22263 	17.7774 	
3.06383e-10 	16892.6 	85.9589 	128.297 	0.3 	2.33333 	-0.952523 	1.11111e-05 	
0.00017508 	0.000355465 	0.000949041 	12562.9 	0.000838085 	4.53243 	12558.3 	12558.3 	0 	
0.000225 	0 	0.92 	0.04 	0.04 	-0.125228 	3.96759 	
4.09282 	4.15572 	-0.0629042 	-1.11135 	5.75919e-09 	0.555677 	19.4443 	
1.53202e-10 	8446.31 	42.9794 	64.1484 	0.3 	1.16667 	-0.952589 	5.55556e-06 	
8.75398e-05 	0.000177732 	0.000949529 	12594.9 	0.000167631 	5.09687 	12589.8 	12589.8 	0 	
ZONE T = "t = 1.1125e-07 [s]" I = 10 SOLUTIONTIME = 1.1125000000000E-07
0.000125 	1.31166e-08 	0.92 	0.04 	0.04 	-0.125227 	3.9676 	
4.09283 	4.15572 	-0.0628901 	-1.11099 	9.79029e-08 	19.4445 	0.555495 	
2.15802e-10 	8446.31 	42.9794 	64.1484 	0.3 	1.16667 	-0.952277 	5.55556e-06 	
8.75398e-05 	0.000177732 	0.0013724 	12557.4 	0.0484248 	0.0176328 	12557.3 	12557.3 	0 	
0.000136111 	1.15737e-08 	0.92 	0.04 	0.04 	-0.125227 	3.9676 	
4.09283 	4.15572 	-0.0628902 	-2.22199 	8.63708e-08 	17.778 	2.22198 	
4.31605e-10 	16892.6 	85.9589 	128.297 	0.3 	2.33333 	-0.952281 	1.11111e-05 	
0.00017508 	0.000355465 	0.00137457 	12584.5 	0.0430634 	0.0881646 	12584.4 	12584.4 	0 	
0.000147222 	1.00307e-08 	0.92 	0.04 	0.04 	-0.125228 	3.9676 	
4.09283 	4.15572 	-0.0628907 	-2.22201 	7.4856e-08 	15.556 	4.44399 	
4.3161e-10 	16892.6 	85.9589 	128.297 	0.3 	2.33333 	-0.952292 	1.11111e-05 	
0.00017508 	0.000355465 	0.00137161 	12568.3 	0.0330108 	0.299762 	12567.9 	12567.9 	0 	
0.000158333 	8.48769e-09 	0.92 	0.04 	0.04 	-0.125228 	3.9676 	
4.09283 	4.15572 	-0.0628916 	-2.22206 	6.3341e-08 	13.334 	6.66602 	
4.31619e-10 	16892.6 	85.9589 	128.297 	0.3 	2.33333 	-0.952311 	1.11111e-05 	
0.00017508 	0.000355465 	0.00137193 	12580.2 	0.0242982 	0.652432 	12579.5 	12579.5 	0 	
0.000169444 	6.94464e-09 	0.92 	0.04 	0.04 	-0.125228 	3.9676 	
4.09283 	4.15572 	-0.0628928 	-2.22212 	5.18256e-08 	11.1119 	8.88811 	
4.31631e-10 	16892.6 	85.9589 	128.297 	0.3 	2.33333 	-0.952337 	1.11111e-05 	
0.00017508 	0.000355465 	0.00137289 	12556.6 	0.0169257 	1.14619 	12555.5 	12555.5 	0 	
0.000180556 	5.40153e-09 	0.92 	0.04 	0.04 	-0.125228 	3.9676 	
4.09283 	4.15572 	-0.0628944 	-2.2222 	4.03099e-08 	8.88973 	11.1103 	
4.31647e-10 	16892.6 	85.9589 	128.297 	0.3 	2.33333 	-0.952372 	1.11111e-05 	
0.00017508 	0.000355465 	0.00137349 	12574.3 	0.0108933 	1.78104 	12572.5 	12572.5 	0 	
0.000191667 	3.85835e-09 	0.92 	0.04 	0.04 	-0.125228 	3.9676 	
4.09282 	4.15572 	-0.0628963 	-2.2223 	2.87936e-08 	6.66748 	13.3325 	
4.31667e-10 	16892.6 	85.9589 	128.297 	0.3 	2.33333 	-0.952415 	1.11111e-05 	
0.00017508 	0.000355465 	0.00137378 	12573.5 	0.00620111 	2.55701 	12570.9 	12570.9 	0 	
0.000202778 	2.31509e-09 	0.92 	0.04 	0.04 	-0.125228 	3.96759 	
4.09282 	4.15572 	-0.0628986 	-2.22242 	1.72768e-08 	4.44512 	15.5549 	
4.3169e-10 	16892.6 	85.9589 	128.297 	0.3 	2.33333 	-0.952465 	1.11111e-05 	
0.00017508 	0.000355465 	0.001373 	12590 	0.00284932 	3.47413 	12586.5 	12586.5 	0 	
0.000213889 	7.71731e-10 	0.92 	0.04 	0.04 	-0.125228 	3.96759 	
4.09282 	4.15572 	-0.0629012 	-2.22255 	5.75919e-09 	2.22263 	17.7774 	
4.31717e-10 	16892.6 	85.9589 	128.297 	0.3 	2.33333 	-0.952523 	1.11111e-05 	
0.00017508 	0.000355465 	0.0013741 	12594.3 	0.000838085 	4.53243 	12589.7 	12589.7 	0 	
0.000225 	0 	0.92 	0.04 	0.04 	-0.125228 	3.96759 	
4.09282 	4.15572 	-0.0629042 	-1.11135 	5.75919e-09 	0.555677 	19.4443 	
2.15874e-10 	8446.31 	42.9794 	64.1484 	0.3 	1.16667 	-0.952589 	5.55556e-06 	
8.75398e-05 	0.000177732 	0.00137384 	12572.3 	0.000167631 	5.09687 	12567.2 	12567.2 	0 	
ZONE T = "t = 1.61875e-07 [s]" I = 10 SOLUTIONTIME = 1.6187500000000E-07
0.000125 	1.31166e-08 	0.92 	0.04 	0.04 	-0.125227 	3.9676 	
4.09283 	4.15572 	-0.0628901 	-1.11099 	9.7911e-08 	19.4445 	0.555495 	
3.09778e-10 	8446.31 	42.9794 	64.1484 	0.3 	1.16667 	-0.952277 	5.55556e-06 	
8.75398e-05 	0.000177732 	0.00200846 	12564.1 	0.0484248 	0.0176328 	12564 	12564 	0 	
0.000136111 	1.15737e-08 	0.92 	0.04 	0.04 	-0.125227 	3.9676 	
4.09283 	4.15572 	-0.0628902 	-2.22199 	8.63708e-08 	17.778 	2.22198 	
6.19557e-10 	16892.6 	85.9589 	128.297 	0.3 	2.33333 	-0.952281 	1.11111e-05 	
0.00017508 	0.000355465 	0.00201175 	12586.2 	0.0430634 	0.0881646 	12586 	12586 	0 	
0.000147222 	1.00307e-08 	0.92 	0.04 	0.04 	-0.125228 	3.9676 	
4.09283 	4.15572 	-0.0628907 	-2.22201 	7.4856e-08 	15.556 	4.44399 	
6.19565e-10 	16892.6 	85.9589 	128.297 	0.3 	2.33333 	-0.952292 	1.11111e-05 	
0.00017508 	0.000355465 	0.0020081 	12572.8 	0.0330108 	0.299762 	12572.5 	12572.5 	0 	
0.000158333 	8.48769e-09 	0.92 	0.04 	0.04 	-0.125228 	3.9676 	
4.09283 	4.15572 	-0.0628916 	-2.22206 	6.3341e-08 	13.334 	6.66602 	
6.19577e-10 	16892.6 	85.9589 	128.297 	0.3 	2.33333 	-0.952311 	1.11111e-05 	
0.00017508 	0.000355465 	0.00200906 	12585.2 	0.0242982 	0.652432 	12584.6 	12584.6 	0 	
0.000169444 	6.94464e-09 	0.92 	0.04 	0.04 	-0.125228 	3.9676 	
4.09283 	4.15572 	-0.0628928 	-2.22212 	5.18256e-08 	11.1119 	8.88811 	
6.19595e-10 	16892.6 	85.9589 	128.297 	0.3 	2.33333 	-0.952337 	1.11111e-05 	
0.00017508 	0.000355465 	0.00200962 	12577.4 	0.0169257 	1.14619 	12576.2 	12576.2 	0 	
0.000180556 	5.40153e-09 	0.92 	0.04 	0.04 	-0.125228 	3.9676 	
4.09283 	4.15572 	-0.0628944 	-2.2222 	4.03099e-08 	8.88973 	11.1103 	
6.19618e-10 	16892.6 	85.9589 	128.297 	0.3 	2.33333 	-0.952372 	1.11111e-05 	
0.00017508 	0.000355465 	0.00201033 	12579.7 	0.0108933 	1.78104 	12577.9 	12577.9 	0 	
0.000191667 	3.85835e-09 	0.92 	0.04 	0.04 	-0.125228 	3.9676 	
4.09282 	4.15572 	-0.0628963 	-2.2223 	2.87936e-08 	6.66748 	13.3325 	
6.19646e-10 	16892.6 	85.9589 	128.297 	0.3 	2.33333 	-0.952415 	1.11111e-05 	
0.00017508 	0.000355465 	0.0020112 	12591.2 	0.00620111 	2.55701 	12588.6 	12588.6 	0 	
0.000202778 	2.31509e-09 	0.92 	0.04 	0.04 	-0.125228 	3.96759 	
4.09282 	4.15572 	-0.0628986 	-2.22242 	1.72768e-08 	4.44512 	15.5549 	
6.19679e-10 	16892.6 	85.9589 	128.297 	0.3 	2.33333 	-0.952465 	1.11111e-05 	
0.00017508 	0.000355465 	0.00201051 	12592.8 	0.00284932 	3.47413 	12589.3 	12589.3 	0 	
0.000213889 	7.71731e-10 	0.92 	0.04 	0.04 	-0.125228 	3.96759 	
4.09282 	4.15572 	-0.0629012 	-2.22255 	5.75919e-09 	2.22263 	17.7774 	
6.19717e-10 	16892.6 	85.9589 	128.297 	0.3 	2.33333 	-0.952523 	1.11111e-05 	
0.00017508 	0.000355465 	0.00201144 	12589.4 	0.000838085 	4.53243 	12584.9 	12584.9 	0 	
0.000225 	0 	0.92 	0.04 	0.04 	-0.125228 	3.96759 	
4.09282 	4.15572 	-0.0629042 	-1.11135 	5.75919e-09 	0.555677 	19.4443 	
3.0988e-10 	8446.31 	42.9794 	64.1484 	0.3 	1.16667 	-0.952589 	5.55556e-06 	
8.75398e-05 	0.000177732 	0.00201072 	12580.2 	0.000167631 	5.09687 	12575.2 	12575.2 	0 	
ZONE T = "t = 2.37813e-07 [s]" I = 10 SOLUTIONTIME = 2.3781250000000E-07
0.000125 	1.31166e-08 	0.92 	0.04 	0.04 	-0.125227 	3.9676 	
4.09283 	4.15572 	-0.0628901 	-1.11099 	9.79236e-08 	19.4445 	0.555495 	
4.50742e-10 	8446.31 	42.9794 	64.1484 	0.3 	1.16667 	-0.952277 	5.55556e-06 	
8.75398e-05 	0.000177732 	0.0029637 	12579.2 	0.0484248 	0.0176328 	12579.2 	12579.2 	0 	
0.000136111 	1.15737e-08 	0.92 	0.04 	0.04 	-0.125227 	3.9676 	
4.09283 	4.15572 	-0.0628902 	-2.22199 	8.63709e-08 	17.778 	2.22198 	
9.01486e-10 	16892.6 	85.9589 	128.297 	0.3 	2.33333 	-0.952281 	1.11111e-05 	
0.00017508 	0.000355465 	0.00296671 	12575.7 	0.0430634 	0.0881646 	12575.5 	12575.5 	0 	
0.000147222 	1.00307e-08 	0.92 	0.04 	0.04 	-0.125228 	3.9676 	
4.09283 	4.15572 	-0.0628907 	-2.22201 	7.4856e-08 	15.556 	4.44399 	
9.01497e-10 	16892.6 	85.9589 	128.297 	0.3 	2.33333 	-0.952292 	1.11111e-05 	
0.00017508 	0.000355465 	0.00296305 	12575.4 	0.0330108 	0.299762 	12575.1 	12575.1 	0 	
0.000158333 	8.48769e-09 	0.92 	0.04 	0.04 	-0.125228 	3.9676 	
4.09283 	4.15572 	-0.0628916 	-2.22206 	6.3341e-08 	13.334 	6.66602 	
9.01515e-10 	16892.6 	85.9589 	128.297 	0.3 	2.33333 	-0.952311 	1.11111e-05 	
0.00017508 	0.000355465 	0.00296414 	12577.2 	0.0242982 	0.652432 	12576.6 	12576.6 	0 	
0.000169444 	6.94464e-09 	0.92 	0.04 	0.04 	-0.125228 	3.9676 	
4.09283 	4.15572 	-0.0628928 	-2.22212 	5.18256e-08 	11.1119 	8.88811 	
9.01541e-10 	16892.6 	85.9589 	128.297 	0.3 	2.33333 	-0.952337 	1.11111e-05 	
0.00017508 	0.000355465 	0.00296445 	12573.9 	0.0169257 	1.14619 	12572.7 	12572.7 	0 	
0.000180556 	5.40153e-09 	0.92 	0.04 	0.04 	-0.125228 	3.9676 	
4.09283 	4.15572 	-0.0628944 	-2.2222 	4.03099e-08 	8.88973 	11.1103 	
9.01574e-10 	16892.6 	85.9589 	128.297 	0.3 	2.33333 	-0.952372 	1.11111e-05 	
0.00017508 	0.000355465 	0.00296557 	12579.3 	0.0108933 	1.78104 	12577.5 	12577.5 	0 	
0.000191667 	3.85835e-09 	0.92 	0.04 	0.04 	-0.125228 	3.9676 	
4.09282 	4.15572 	-0.0628963 	-2.2223 	2.87936e-08 	6.66748 	13.3325 	
9.01614e-10 	16892.6 	85.9589 	128.297 	0.3 	2.33333 	-0.952415 	1.11111e-05 	
0.00017508 	0.000355465 	0.0029666 	12581.3 	0.00620111 	2.55701 	12578.8 	12578.8 	0 	
0.000202778 	2.31509e-09 	0.92 	0.04 	0.04 	-0.125228 	3.96759 	
4.09282 	4.15572 	-0.0628986 	-2.22242 	1.72768e-08 	4.44512 	15.5549 	
9.01662e-10 	16892.6 	85.9589 	128.297 	0.3 	2.33333 	-0.952465 	1.11111e-05 	
0.00017508 	0.000355465 	0.00296588 	12581 	0.00284932 	3.47413 	12577.5 	12577.5 	0 	
0.000213889 	7.71731e-10 	0.92 	0.04 	0.04 	-0.125228 	3.96759 	
4.09282 	4.15572 	-0.0629012 	-2.22255 	5.75919e-09 	2.22263 	17.7774 	