TITLE = "Solution on Domain BulkDomain1D_1"
VARIABLES = "x [m]"  
"Vel_axial(0)" 	"MF_sp(ECDMC)" 	"MF_sp(Li+)" 	"MF_sp(PF6-)" 	"Volt(Electroly)" 	
ZONE T = "t = 0 [s]" I = 10 SOLUTIONTIME = 0.0000000000000E+00
0.000128 	0 	0.92 	0.04 	0.04 	-0.07 	
0.0845724 	0 	0.92 	0.04 	0.04 	-0.07 	
0.169017 	0 	0.92 	0.04 	0.04 	-0.07 	
0.253461 	0 	0.92 	0.04 	0.04 	-0.07 	
0.337906 	0 	0.92 	0.04 	0.04 	-0.07 	
0.42235 	0 	0.92 	0.04 	0.04 	-0.07 	
0.506795 	0 	0.92 	0.04 	0.04 	-0.07 	
0.591239 	0 	0.92 	0.04 	0.04 	-0.07 	
0.675684 	0 	0.92 	0.04 	0.04 	-0.07 	
0.760128 	0 	0.92 	0.04 	0.04 	-0.07 	
ZONE T = "t = 1e-08 [s]" I = 10 SOLUTIONTIME = 1.0000000000000E-08
0.000128 	1.38881e-08 	0.92 	0.04 	0.04 	-0.0150938 	
0.0845724 	1.38881e-08 	0.92 	0.04 	0.04 	-0.0151315 	
0.169017 	1.38881e-08 	0.92 	0.04 	0.04 	-0.0151692 	
0.253461 	1.38881e-08 	0.92 	0.04 	0.04 	-0.0152068 	
0.337906 	1.38881e-08 	0.92 	0.04 	0.04 	-0.0152445 	
0.42235 	1.38881e-08 	0.92 	0.04 	0.04 	-0.0152822 	
0.506795 	1.38881e-08 	0.92 	0.04 	0.04 	-0.0153198 	
0.591239 	1.38881e-08 	0.92 	0.04 	0.04 	-0.0153575 	
0.675684 	1.38881e-08 	0.92 	0.04 	0.04 	-0.0153951 	
0.760128 	1.31167e-08 	0.92 	0.04 	0.04 	-0.0154328 	
ZONE T = "t = 2e-08 [s]" I = 10 SOLUTIONTIME = 2.0000000000000E-08
0.000128 	1.38881e-08 	0.92 	0.04 	0.04 	0.00262221 	
0.0845724 	1.38881e-08 	0.92 	0.04 	0.04 	0.00258455 	
0.169017 	1.38881e-08 	0.92 	0.04 	0.04 	0.00254688 	
0.253461 	1.38881e-08 	0.92 	0.04 	0.04 	0.00250922 	
0.337906 	1.38881e-08 	0.92 	0.04 	0.04 	0.00247156 	
0.42235 	1.38881e-08 	0.92 	0.04 	0.04 	0.00243389 	
0.506795 	1.38881e-08 	0.92 	0.04 	0.04 	0.00239623 	
0.591239 	1.38881e-08 	0.92 	0.04 	0.04 	0.00235856 	
0.675684 	1.38881e-08 	0.92 	0.04 	0.04 	0.0023209 	
0.760128 	1.31167e-08 	0.92 	0.04 	0.04 	0.00228323 	
ZONE T = "t = 3e-08 [s]" I = 10 SOLUTIONTIME = 3.0000000000000E-08
0.000128 	1.38881e-08 	0.92 	0.04 	0.04 	0.00262229 	
0.0845724 	1.38881e-08 	0.92 	0.04 	0.04 	0.00258463 	
0.169017 	1.38881e-08 	0.92 	0.04 	0.04 	0.00254696 	
0.253461 	1.38881e-08 	0.92 	0.04 	0.04 	0.0025093 	
0.337906 	1.38881e-08 	0.92 	0.04 	0.04 	0.00247163 	
0.42235 	1.38881e-08 	0.92 	0.04 	0.04 	0.00243397 	
0.506795 	1.38881e-08 	0.92 	0.04 	0.04 	0.0023963 	
0.591239 	1.38881e-08 	0.92 	0.04 	0.04 	0.00235864 	
0.675684 	1.38881e-08 	0.92 	0.04 	0.04 	0.00232098 	
0.760128 	1.31167e-08 	0.92 	0.04 	0.04 	0.00228331 	
ZONE T = "t = 3.5e-08 [s]" I = 10 SOLUTIONTIME = 3.5000000000000E-08
0.000128 	1.38881e-08 	0.92 	0.04 	0.04 	0.00262228 	
0.0845724 	1.38881e-08 	0.92 	0.04 	0.04 	0.00258462 	
0.169017 	1.38881e-08 	0.92 	0.04 	0.04 	0.00254695 	
0.253461 	1.38881e-08 	0.92 	0.04 	0.04 	0.00250929 	
0.337906 	1.38881e-08 	0.92 	0.04 	0.04 	0.00247162 	
0.42235 	1.38881e-08 	0.92 	0.04 	0.04 	0.00243396 	
0.506795 	1.38881e-08 	0.92 	0.04 	0.04 	0.0023963 	
0.591239 	1.38881e-08 	0.92 	0.04 	0.04 	0.00235863 	
0.675684 	1.38881e-08 	0.92 	0.04 	0.04 	0.00232097 	
0.760128 	1.31167e-08 	0.92 	0.04 	0.04 	0.0022833 	
ZONE T = "t = 4e-08 [s]" I = 10 SOLUTIONTIME = 4.0000000000000E-08
0.000128 	1.38881e-08 	0.92 	0.04 	0.04 	0.00262228 	
0.0845724 	1.38881e-08 	0.92 	0.04 	0.04 	0.00258462 	
0.169017 	1.38881e-08 	0.92 	0.04 	0.04 	0.00254695 	
0.253461 	1.38881e-08 	0.92 	0.04 	0.04 	0.00250929 	
0.337906 	1.38881e-08 	0.92 	0.04 	0.04 	0.00247162 	
0.42235 	1.38881e-08 	0.92 	0.04 	0.04 	0.00243396 	
0.506795 	1.38881e-08 	0.92 	0.04 	0.04 	0.0023963 	
0.591239 	1.38881e-08 	0.92 	0.04 	0.04 	0.00235863 	
0.675684 	1.38881e-08 	0.92 	0.04 	0.04 	0.00232097 	
0.760128 	1.31167e-08 	0.92 	0.04 	0.04 	0.0022833 	
ZONE T = "t = 4.5e-08 [s]" I = 10 SOLUTIONTIME = 4.5000000000000E-08
0.000128 	1.38881e-08 	0.92 	0.04 	0.04 	0.00262228 	
0.0845724 	1.38881e-08 	0.92 	0.04 	0.04 	0.00258462 	
0.169017 	1.38881e-08 	0.92 	0.04 	0.04 	0.00254695 	
0.253461 	1.38881e-08 	0.92 	0.04 	0.04 	0.00250929 	
0.337906 	1.38881e-08 	0.92 	0.04 	0.04 	0.00247162 	
0.42235 	1.38881e-08 	0.92 	0.04 	0.04 	0.00243396 	
0.506795 	1.38881e-08 	0.92 	0.04 	0.04 	0.0023963 	
0.591239 	1.38881e-08 	0.92 	0.04 	0.04 	0.00235863 	
0.675684 	1.38881e-08 	0.92 	0.04 	0.04 	0.00232097 	
0.760128 	1.31167e-08 	0.92 	0.04 	0.04 	0.0022833 	
ZONE T = "t = 5.25e-08 [s]" I = 10 SOLUTIONTIME = 5.2500000000000E-08
0.000128 	1.38881e-08 	0.92 	0.04 	0.04 	0.00262228 	
0.0845724 	1.38881e-08 	0.92 	0.04 	0.04 	0.00258462 	
0.169017 	1.38881e-08 	0.92 	0.04 	0.04 	0.00254695 	
0.253461 	1.38881e-08 	0.92 	0.04 	0.04 	0.00250929 	
0.337906 	1.38881e-08 	0.92 	0.04 	0.04 	0.00247162 	
0.42235 	1.38881e-08 	0.92 	0.04 	0.04 	0.00243396 	
0.506795 	1.38881e-08 	0.92 	0.04 	0.04 	0.0023963 	
0.591239 	1.38881e-08 	0.92 	0.04 	0.04 	0.00235863 	
0.675684 	1.38881e-08 	0.92 	0.04 	0.04 	0.00232097 	
0.760128 	1.31167e-08 	0.92 	0.04 	0.04 	0.0022833 	
ZONE T = "t = 6.375e-08 [s]" I = 10 SOLUTIONTIME = 6.3750000000000E-08
0.000128 	1.38881e-08 	0.92 	0.04 	0.04 	0.00262228 	
0.0845724 	1.38881e-08 	0.92 	0.04 	0.04 	0.00258462 	
0.169017 	1.38881e-08 	0.92 	0.04 	0.04 	0.00254695 	
0.253461 	1.38881e-08 	0.92 	0.04 	0.04 	0.00250929 	
0.337906 	1.38881e-08 	0.92 	0.04 	0.04 	0.00247162 	
0.42235 	1.38881e-08 	0.92 	0.04 	0.04 	0.00243396 	
0.506795 	1.38881e-08 	0.92 	0.04 	0.04 	0.0023963 	
0.591239 	1.38881e-08 	0.92 	0.04 	0.04 	0.00235863 	
0.675684 	1.38881e-08 	0.92 	0.04 	0.04 	0.00232097 	
0.760128 	1.31167e-08 	0.92 	0.04 	0.04 	0.0022833 	
ZONE T = "t = 8.0625e-08 [s]" I = 10 SOLUTIONTIME = 8.0625000000000E-08
0.000128 	1.38881e-08 	0.92 	0.04 	0.04 	0.00262228 	
0.0845724 	1.38881e-08 	0.92 	0.04 	0.04 	0.00258462 	
0.169017 	1.38881e-08 	0.92 	0.04 	0.04 	0.00254695 	
0.253461 	1.38881e-08 	0.92 	0.04 	0.04 	0.00250929 	
0.337906 	1.38881e-08 	0.92 	0.04 	0.04 	0.00247162 	
0.42235 	1.38881e-08 	0.92 	0.04 	0.04 	0.00243396 	
0.506795 	1.38881e-08 	0.92 	0.04 	0.04 	0.0023963 	
0.591239 	1.38881e-08 	0.92 	0.04 	0.04 	0.00235863 	
0.675684 	1.38881e-08 	0.92 	0.04 	0.04 	0.00232097 	
0.760128 	1.31167e-08 	0.92 	0.04 	0.04 	0.0022833 	
ZONE T = "t = 1.05938e-07 [s]" I = 10 SOLUTIONTIME = 1.0593750000000E-07
0.000128 	1.38881e-08 	0.92 	0.04 	0.04 	0.00262228 	
0.0845724 	1.38881e-08 	0.92 	0.04 	0.04 	0.00258462 	
0.169017 	1.38881e-08 	0.92 	0.04 	0.04 	0.00254695 	
0.253461 	1.38881e-08 	0.92 	0.04 	0.04 	0.00250929 	
0.337906 	1.38881e-08 	0.92 	0.04 	0.04 	0.00247162 	
0.42235 	1.38881e-08 	0.92 	0.04 	0.04 	0.00243396 	
0.506795 	1.38881e-08 	0.92 	0.04 	0.04 	0.0023963 	
0.591239 	1.38881e-08 	0.92 	0.04 	0.04 	0.00235863 	
0.675684 	1.38881e-08 	0.92 	0.04 	0.04 	0.00232097 	
0.760128 	1.31167e-08 	0.92 	0.04 	0.04 	0.0022833 	
ZONE T = "t = 1.43906e-07 [s]" I = 10 SOLUTIONTIME = 1.4390625000000E-07
0.000128 	1.38881e-08 	0.92 	0.04 	0.04 	0.00262228 	
0.0845724 	1.38881e-08 	0.92 	0.04 	0.04 	0.00258462 	
0.169017 	1.38881e-08 	0.92 	0.04 	0.04 	0.00254695 	
0.253461 	1.38881e-08 	0.92 	0.04 	0.04 	0.00250929 	
0.337906 	1.38881e-08 	0.92 	0.04 	0.04 	0.00247162 	
0.42235 	1.38881e-08 	0.92 	0.04 	0.04 	0.00243396 	
0.506795 	1.38881e-08 	0.92 	0.04 	0.04 	0.0023963 	
0.591239 	1.38881e-08 	0.92 	0.04 	0.04 	0.00235863 	
0.675684 	1.38881e-08 	0.92 	0.04 	0.04 	0.00232097 	
0.760128 	1.31167e-08 	0.92 	0.04 	0.04 	0.0022833 	
ZONE T = "t = 2.00859e-07 [s]" I = 10 SOLUTIONTIME = 2.0085937500000E-07
0.000128 	1.38881e-08 	0.92 	0.04 	0.04 	0.00262228 	
0.0845724 	1.38881e-08 	0.92 	0.04 	0.04 	0.00258462 	
0.169017 	1.38881e-08 	0.92 	0.04 	0.04 	0.00254695 	
0.253461 	1.38881e-08 	0.92 	0.04 	0.04 	0.00250929 	
0.337906 	1.38881e-08 	0.92 	0.04 	0.04 	0.00247162 	
0.42235 	1.38881e-08 	0.92 	0.04 	0.04 	0.00243396 	
0.506795 	1.38881e-08 	0.92 	0.04 	0.04 	0.0023963 	
0.591239 	1.38881e-08 	0.92 	0.04 	0.04 	0.00235863 	
0.675684 	1.38881e-08 	0.92 	0.04 	0.04 	0.00232097 	
0.760128 	1.31167e-08 	0.92 	0.04 	0.04 	0.0022833 	
ZONE T = "t = 2.86289e-07 [s]" I = 10 SOLUTIONTIME = 2.8628906250000E-07
0.000128 	1.38881e-08 	0.92 	0.04 	0.04 	0.00262228 	
0.0845724 	1.38881e-08 	0.92 	0.04 	0.04 	0.00258462 	
0.169017 	1.38881e-08 	0.92 	0.04 	0.04 	0.00254695 	
0.253461 	1.38881e-08 	0.92 	0.04 	0.04 	0.00250929 	
0.337906 	1.38881e-08 	0.92 	0.04 	0.04 	0.00247162 	
0.42235 	1.38881e-08 	0.92 	0.04 	0.04 	0.00243396 	
0.506795 	1.38881e-08 	0.92 	0.04 	0.04 	0.0023963 	
0.591239 	1.38881e-08 	0.92 	0.04 	0.04 	0.00235863 	
0.675684 	1.38881e-08 	0.92 	0.04 	0.04 	0.00232097 	
0.760128 	1.31167e-08 	0.92 	0.04 	0.04 	0.0022833 	
ZONE T = "t = 4.14434e-07 [s]" I = 10 SOLUTIONTIME = 4.1443359375000E-07
0.000128 	1.38881e-08 	0.92 	0.04 	0.04 	0.00262228 	
0.0845724 	1.38881e-08 	0.92 	0.04 	0.04 	0.00258462 	
0.169017 	1.38881e-08 	0.92 	0.04 	0.04 	0.00254695 	
0.253461 	1.38881e-08 	0.92 	0.04 	0.04 	0.00250929 	
0.337906 	1.38881e-08 	0.92 	0.04 	0.04 	0.00247162 	
0.42235 	1.38881e-08 	0.92 	0.04 	0.04 	0.00243396 	
0.506795 	1.38881e-08 	0.92 	0.04 	0.04 	0.0023963 	
0.591239 	1.38881e-08 	0.92 	0.04 	0.04 	0.00235863 	
0.675684 	1.38881e-08 	0.92 	0.04 	0.04 	0.00232097 	
0.760128 	1.31167e-08 	0.92 	0.04 	0.04 	0.0022833 	
ZONE T = "t = 6.0665e-07 [s]" I = 10 SOLUTIONTIME = 6.0665039062500E-07
0.000128 	1.38881e-08 	0.92 	0.04 	0.04 	0.00262228 	
0.0845724 	1.38881e-08 	0.92 	0.04 	0.04 	0.00258462 	
0.169017 	1.38881e-08 	0.92 	0.04 	0.04 	0.00254695 	
0.253461 	1.38881e-08 	0.92 	0.04 	0.04 	0.00250929 	
0.337906 	1.38881e-08 	0.92 	0.04 	0.04 	0.00247162 	
0.42235 	1.38881e-08 	0.92 	0.04 	0.04 	0.00243396 	
0.506795 	1.38881e-08 	0.92 	0.04 	0.04 	0.0023963 	
0.591239 	1.38881e-08 	0.92 	0.04 	0.04 	0.00235863 	
0.675684 	1.38881e-08 	0.92 	0.04 	0.04 	0.00232097 	
0.760128 	1.31167e-08 	0.92 	0.04 	0.04 	0.0022833 	
ZONE T = "t = 8.94976e-07 [s]" I = 10 SOLUTIONTIME = 8.9497558593750E-07
0.000128 	1.38881e-08 	0.92 	0.04 	0.04 	0.00262228 	
0.0845724 	1.38881e-08 	0.92 	0.04 	0.04 	0.00258462 	
0.169017 	1.38881e-08 	0.92 	0.04 	0.04 	0.00254695 	
0.253461 	1.38881e-08 	0.92 	0.04 	0.04 	0.00250929 	
0.337906 	1.38881e-08 	0.92 	0.04 	0.04 	0.00247162 	
0.42235 	1.38881e-08 	0.92 	0.04 	0.04 	0.00243396 	
0.506795 	1.38881e-08 	0.92 	0.04 	0.04 	0.0023963 	
0.591239 	1.38881e-08 	0.92 	0.04 	0.04 	0.00235863 	
0.675684 	1.38881e-08 	0.92 	0.04 	0.04 	0.00232097 	
0.760128 	1.31167e-08 	0.92 	0.04 	0.04 	0.0022833 	
ZONE T = "t = 1.32746e-06 [s]" I = 10 SOLUTIONTIME = 1.3274633789063E-06
0.000128 	1.38881e-08 	0.92 	0.04 	0.04 	0.00262228 	
0.0845724 	1.38881e-08 	0.92 	0.04 	0.04 	0.00258462 	
0.169017 	1.38881e-08 	0.92 	0.04 	0.04 	0.00254695 	
0.253461 	1.38881e-08 	0.92 	0.04 	0.04 	0.00250929 	
0.337906 	1.38881e-08 	0.92 	0.04 	0.04 	0.00247162 	
0.42235 	1.38881e-08 	0.92 	0.04 	0.04 	0.00243396 	
0.506795 	1.38881e-08 	0.92 	0.04 	0.04 	0.0023963 	
0.591239 	1.38881e-08 	0.92 	0.04 	0.04 	0.00235863 	
0.675684 	1.38881e-08 	0.92 	0.04 	0.04 	0.00232097 	
0.760128 	1.31167e-08 	0.92 	0.04 	0.04 	0.0022833 	
ZONE T = "t = 1.9762e-06 [s]" I = 10 SOLUTIONTIME = 1.9761950683594E-06
0.000128 	1.38881e-08 	0.92 	0.04 	0.04 	0.00262228 	
0.0845724 	1.38881e-08 	0.92 	0.04 	0.04 	0.00258462 	
0.169017 	1.38881e-08 	0.92 	0.04 	0.04 	0.00254695 	
0.253461 	1.38881e-08 	0.92 	0.04 	0.04 	0.00250929 	
0.337906 	1.38881e-08 	0.92 	0.04 	0.04 	0.00247162 	
0.42235 	1.38881e-08 	0.92 	0.04 	0.04 	0.00243396 	
0.506795 	1.38881e-08 	0.92 	0.04 	0.04 	0.0023963 	
0.591239 	1.38881e-08 	0.92 	0.04 	0.04 	0.00235863 	
0.675684 	1.38881e-08 	0.92 	0.04 	0.04 	0.00232097 	
0.760128 	1.31167e-08 	0.92 	0.04 	0.04 	0.0022833 	
ZONE T = "t = 2.94929e-06 [s]" I = 10 SOLUTIONTIME = 2.9492926025391E-06
0.000128 	1.38881e-08 	0.92 	0.04 	0.04 	0.00262228 	
0.0845724 	1.38881e-08 	0.92 	0.04 	0.04 	0.00258462 	
0.169017 	1.38881e-08 	0.92 	0.04 	0.04 	0.00254695 	
0.253461 	1.38881e-08 	0.92 	0.04 	0.04 	0.00250929 	
0.337906 	1.38881e-08 	0.92 	0.04 	0.04 	0.00247162 	
0.42235 	1.38881e-08 	0.92 	0.04 	0.04 	0.00243396 	
0.506795 	1.38881e-08 	0.92 	0.04 	0.04 	0.0023963 	
0.591239 	1.38881e-08 	0.92 	0.04 	0.04 	0.00235863 	
0.675684 	1.38881e-08 	0.92 	0.04 	0.04 	0.00232097 	
0.760128 	1.31167e-08 	0.92 	0.04 	0.04 	0.0022833 	
ZONE T = "t = 4.40894e-06 [s]" I = 10 SOLUTIONTIME = 4.4089389038086E-06
0.000128 	1.38881e-08 	0.92 	0.04 	0.04 	0.00262228 	
0.0845724 	1.38881e-08 	0.92 	0.04 	0.04 	0.00258462 	
0.169017 	1.38881e-08 	0.92 	0.04 	0.04 	0.00254695 	
0.253461 	1.38881e-08 	0.92 	0.04 	0.04 	0.00250929 	
0.337906 	1.38881e-08 	0.92 	0.04 	0.04 	0.00247162 	
0.42235 	1.38881e-08 	0.92 	0.04 	0.04 	0.00243396 	
0.506795 	1.38881e-08 	0.92 	0.04 	0.04 	0.0023963 	
0.591239 	1.38881e-08 	0.92 	0.04 	0.04 	0.00235863 	
0.675684 	1.38881e-08 	0.92 	0.04 	0.04 	0.00232097 	
0.760128 	1.31167e-08 	0.92 	0.04 	0.04 	0.0022833 	
ZONE T = "t = 6.59841e-06 [s]" I = 10 SOLUTIONTIME = 6.5984083557129E-06
0.000128 	1.38881e-08 	0.92 	0.04 	0.04 	0.00262228 	
0.0845724 	1.38881e-08 	0.92 	0.04 	0.04 	0.00258462 	
0.169017 	1.38881e-08 	0.92 	0.04 	0.04 	0.00254695 	
0.253461 	1.38881e-08 	0.92 	0.04 	0.04 	0.00250929 	
0.337906 	1.38881e-08 	0.92 	0.04 	0.04 	0.00247162 	
0.42235 	1.38881e-08 	0.92 	0.04 	0.04 	0.00243396 	
0.506795 	1.38881e-08 	0.92 	0.04 	0.04 	0.00239629 	
0.591239 	1.38881e-08 	0.92 	0.04 	0.04 	0.00235863 	
0.675684 	1.38881e-08 	0.92 	0.04 	0.04 	0.00232097 	
0.760128 	1.31167e-08 	0.92 	0.04 	0.04 	0.0022833 	
ZONE T = "t = 9.88261e-06 [s]" I = 10 SOLUTIONTIME = 9.8826125335693E-06
0.000128 	1.38881e-08 	0.92 	0.04 	0.04 	0.00262228 	
0.0845724 	1.38881e-08 	0.92 	0.04 	0.04 	0.00258462 	
0.169017 	1.38881e-08 	0.92 	0.04 	0.04 	0.00254695 	
0.253461 	1.38881e-08 	0.92 	0.04 	0.04 	0.00250929 	
0.337906 	1.38881e-08 	0.92 	0.04 	0.04 	0.00247162 	
0.42235 	1.38881e-08 	0.92 	0.04 	0.04 	0.00243396 	
0.506795 	1.38881e-08 	0.92 	0.04 	0.04 	0.00239629 	
0.591239 	1.38881e-08 	0.92 	0.04 	0.04 	0.00235863 	
0.675684 	1.38881e-08 	0.92 	0.04 	0.04 	0.00232097 	
0.760128 	1.31167e-08 	0.92 	0.04 	0.04 	0.0022833 	
ZONE T = "t = 1.48089e-05 [s]" I = 10 SOLUTIONTIME = 1.4808918800354E-05
0.000128 	1.38881e-08 	0.92 	0.04 	0.04 	0.00262228 	
0.0845724 	1.38881e-08 	0.92 	0.04 	0.04 	0.00258462 	
0.169017 	1.38881e-08 	0.92 	0.04 	0.04 	0.00254695 	
0.253461 	1.38881e-08 	0.92 	0.04 	0.04 	0.00250929 	
0.337906 	1.38881e-08 	0.92 	0.04 	0.04 	0.00247162 	
0.42235 	1.38881e-08 	0.92 	0.04 	0.04 	0.00243396 	
0.506795 	1.38881e-08 	0.92 	0.04 	0.04 	0.00239629 	
0.591239 	1.38881e-08 	0.92 	0.04 	0.04 	0.00235863 	
0.675684 	1.38881e-08 	0.92 	0.04 	0.04 	0.00232097 	
0.760128 	1.31167e-08 	0.92 	0.04 	0.04 	0.0022833 	
ZONE T = "t = 2.21984e-05 [s]" I = 10 SOLUTIONTIME = 2.2198378200531E-05
0.000128 	1.38881e-08 	0.92 	0.04 	0.04 	0.00262228 	
0.0845724 	1.38881e-08 	0.92 	0.04 	0.04 	0.00258462 	
0.169017 	1.38881e-08 	0.92 	0.04 	0.04 	0.00254695 	
0.253461 	1.38881e-08 	0.92 	0.04 	0.04 	0.00250929 	
0.337906 	1.38881e-08 	0.92 	0.04 	0.04 	0.00247162 	
0.42235 	1.38881e-08 	0.92 	0.04 	0.04 	0.00243396 	
0.506795 	1.38881e-08 	0.92 	0.04 	0.04 	0.00239629 	
0.591239 	1.38881e-08 	0.92 	0.04 	0.04 	0.00235863 	
0.675684 	1.38881e-08 	0.92 	0.04 	0.04 	0.00232097 	
0.760128 	1.31167e-08 	0.92 	0.04 	0.04 	0.0022833 	
ZONE T = "t = 3.32826e-05 [s]" I = 10 SOLUTIONTIME = 3.3282567300797E-05
0.000128 	1.38881e-08 	0.92 	0.04 	0.04 	0.00262228 	
0.0845724 	1.38881e-08 	0.92 	0.04 	0.04 	0.00258462 	
0.169017 	1.38881e-08 	0.92 	0.04 	0.04 	0.00254695 	
0.253461 	1.38881e-08 	0.92 	0.04 	0.04 	0.00250929 	
0.337906 	1.38881e-08 	0.92 	0.04 	0.04 	0.00247162 	
0.42235 	1.38881e-08 	0.92 	0.04 	0.04 	0.00243396 	
0.506795 	1.38881e-08 	0.92 	0.04 	0.04 	0.00239629 	
0.591239 	1.38881e-08 	0.92 	0.04 	0.04 	0.00235863 	
0.675684 	1.38881e-08 	0.92 	0.04 	0.04 	0.00232096 	
0.760128 	1.31167e-08 	0.92 	0.04 	0.04 	0.0022833 	
ZONE T = "t = 4.99089e-05 [s]" I = 10 SOLUTIONTIME = 4.9908850951195E-05
0.000128 	1.38881e-08 	0.92 	0.04 	0.04 	0.00262228 	
0.0845724 	1.38881e-08 	0.92 	0.04 	0.04 	0.00258462 	
0.169017 	1.38881e-08 	0.92 	0.04 	0.04 	0.00254695 	
0.253461 	1.38881e-08 	0.92 	0.04 	0.04 	0.00250929 	
0.337906 	1.38881e-08 	0.92 	0.04 	0.04 	0.00247162 	
0.42235 	1.38881e-08 	0.92 	0.04 	0.04 	0.00243396 	
0.506795 	1.38881e-08 	0.92 	0.04 	0.04 	0.00239629 	
0.591239 	1.38881e-08 	0.92 	0.04 	0.04 	0.00235863 	
0.675684 	1.38881e-08 	0.92 	0.04 	0.04 	0.00232096 	
0.760128 	1.31167e-08 	0.92 	0.04 	0.04 	0.0022833 	
ZONE T = "t = 7.48483e-05 [s]" I = 10 SOLUTIONTIME = 7.4848276426792E-05
0.000128 	1.38881e-08 	0.92 	0.04 	0.04 	0.00262228 	
0.0845724 	1.38881e-08 	0.92 	0.04 	0.04 	0.00258461 	
0.169017 	1.38881e-08 	0.92 	0.04 	0.04 	0.00254695 	
0.253461 	1.38881e-08 	0.92 	0.04 	0.04 	0.00250928 	
0.337906 	1.38881e-08 	0.92 	0.04 	0.04 	0.00247162 	
0.42235 	1.38881e-08 	0.92 	0.04 	0.04 	0.00243396 	
0.506795 	1.38881e-08 	0.92 	0.04 	0.04 	0.00239629 	
0.591239 	1.38881e-08 	0.92 	0.04 	0.04 	0.00235863 	
0.675684 	1.38881e-08 	0.92 	0.04 	0.04 	0.00232096 	
0.760128 	1.31167e-08 	0.92 	0.04 	0.04 	0.0022833 	
ZONE T = "t = 0.000112257 [s]" I = 10 SOLUTIONTIME = 1.1225741464019E-04
0.000128 	1.38881e-08 	0.92 	0.04 	0.04 	0.00262228 	
0.0845724 	1.38881e-08 	0.92 	0.04 	0.04 	0.00258461 	
0.169017 	1.38881e-08 	0.92 	0.04 	0.04 	0.00254695 	
0.253461 	1.38881e-08 	0.92 	0.04 	0.04 	0.00250928 	
0.337906 	1.38881e-08 	0.92 	0.04 	0.04 	0.00247162 	
0.42235 	1.38881e-08 	0.92 	0.04 	0.04 	0.00243395 	
0.506795 	1.38881e-08 	0.92 	0.04 	0.04 	0.00239629 	
0.591239 	1.38881e-08 	0.92 	0.04 	0.04 	0.00235862 	
0.675684 	1.38881e-08 	0.92 	0.04 	0.04 	0.00232096 	
0.760128 	1.31167e-08 	0.92 	0.04 	0.04 	0.0022833 	
ZONE T = "t = 0.000168371 [s]" I = 10 SOLUTIONTIME = 1.6837112196028E-04
0.000128 	1.38881e-08 	0.92 	0.04 	0.04 	0.00262227 	
0.0845724 	1.38881e-08 	0.92 	0.04 	0.04 	0.00258461 	
0.169017 	1.38881e-08 	0.92 	0.04 	0.04 	0.00254694 	
0.253461 	1.38881e-08 	0.92 	0.04 	0.04 	0.00250928 	
0.337906 	1.38881e-08 	0.92 	0.04 	0.04 	0.00247162 	
0.42235 	1.38881e-08 	0.92 	0.04 	0.04 	0.00243395 	
0.506795 	1.38881e-08 	0.92 	0.04 	0.04 	0.00239629 	
0.591239 	1.38881e-08 	0.92 	0.04 	0.04 	0.00235862 	
0.675684 	1.38881e-08 	0.92 	0.04 	0.04 	0.00232096 	
0.760128 	1.31167e-08 	0.92 	0.04 	0.04 	0.00228329 	
ZONE T = "t = 0.000252542 [s]" I = 10 SOLUTIONTIME = 2.5254168294042E-04
0.000128 	1.38881e-08 	0.92 	0.04 	0.04 	0.00262227 	
0.0845724 	1.38881e-08 	0.92 	0.04 	0.04 	0.00258461 	
0.169017 	1.38881e-08 	0.92 	0.04 	0.04 	0.00254694 	
0.253461 	1.38881e-08 	0.92 	0.04 	0.04 	0.00250928 	
0.337906 	1.38881e-08 	0.92 	0.04 	0.04 	0.00247161 	
0.42235 	1.38881e-08 	0.92 	0.04 	0.04 	0.00243395 	
0.506795 	1.38881e-08 	0.92 	0.04 	0.04 	0.00239628 	
0.591239 	1.38881e-08 	0.92 	0.04 	0.04 	0.00235862 	
0.675684 	1.38881e-08 	0.92 	0.04 	0.04 	0.00232095 	
0.760128 	1.31167e-08 	0.92 	0.04 	0.04 	0.00228329 	
ZONE T = "t = 0.000378798 [s]" I = 10 SOLUTIONTIME = 3.7879752441064E-04
0.000128 	1.38881e-08 	0.92 	0.04 	0.04 	0.00262226 	
0.0845724 	1.38881e-08 	0.92 	0.04 	0.04 	0.0025846 	
0.169017 	1.38881e-08 	0.92 	0.04 	0.04 	0.00254694 	
0.253461 	1.38881e-08 	0.92 	0.04 	0.04 	0.00250927 	
0.337906 	1.38881e-08 	0.92 	0.04 	0.04 	0.00247161 	
0.42235 	1.38881e-08 	0.92 	0.04 	0.04 	0.00243394 	
0.506795 	1.38881e-08 	0.92 	0.04 	0.04 	0.00239628 	
0.591239 	1.38881e-08 	0.92 	0.04 	0.04 	0.00235861 	
0.675684 	1.38881e-08 	0.92 	0.04 	0.04 	0.00232095 	
0.760128 	1.31167e-08 	0.92 	0.04 	0.04 	0.00228328 	
ZONE T = "t = 0.000568181 [s]" I = 10 SOLUTIONTIME = 5.6818128661595E-04
0.000128 	1.38881e-08 	0.92 	0.04 	0.04 	0.00262226 	
0.0845724 	1.38881e-08 	0.92 	0.04 	0.04 	0.00258459 	
0.169017 	1.38881e-08 	0.92 	0.04 	0.04 	0.00254693 	
0.253461 	1.38881e-08 	0.92 	0.04 	0.04 	0.00250926 	
0.337906 	1.38881e-08 	0.92 	0.04 	0.04 	0.0024716 	
0.42235 	1.38881e-08 	0.92 	0.04 	0.04 	0.00243393 	
0.506795 	1.38881e-08 	0.92 	0.04 	0.04 	0.00239627 	
0.591239 	1.38881e-08 	0.92 	0.04 	0.04 	0.00235861 	
0.675684 	1.38881e-08 	0.92 	0.04 	0.04 	0.00232094 	
0.760128 	1.31167e-08 	0.92 	0.04 	0.04 	0.00228328 	
ZONE T = "t = 0.000852257 [s]" I = 10 SOLUTIONTIME = 8.5225692992393E-04
0.000128 	1.38881e-08 	0.92 	0.04 	0.04 	0.00262225 	
0.0845724 	1.38881e-08 	0.92 	0.04 	0.04 	0.00258458 	
0.169017 	1.38881e-08 	0.92 	0.04 	0.04 	0.00254692 	
0.253461 	1.38881e-08 	0.92 	0.04 	0.04 	0.00250925 	
0.337906 	1.38881e-08 	0.92 	0.04 	0.04 	0.00247159 	
0.42235 	1.38881e-08 	0.92 	0.04 	0.04 	0.00243393 	
0.506795 	1.38881e-08 	0.92 	0.04 	0.04 	0.00239626 	
0.591239 	1.38881e-08 	0.92 	0.04 	0.04 	0.0023586 	
0.675684 	1.38881e-08 	0.92 	0.04 	0.04 	0.00232093 	
0.760128 	1.31167e-08 	0.92 	0.04 	0.04 	0.00228327 	
ZONE T = "t = 0.00127837 [s]" I = 10 SOLUTIONTIME = 1.2783703948859E-03
0.000128 	1.38881e-08 	0.92 	0.04 	0.04 	0.00262224 	
0.0845724 	1.38881e-08 	0.92 	0.04 	0.04 	0.00258457 	
0.169017 	1.38881e-08 	0.92 	0.04 	0.04 	0.00254691 	
0.253461 	1.38881e-08 	0.92 	0.04 	0.04 	0.00250924 	
0.337906 	1.38881e-08 	0.92 	0.04 	0.04 	0.00247158 	
0.42235 	1.38881e-08 	0.92 	0.04 	0.04 	0.00243391 	
0.506795 	1.38881e-08 	0.92 	0.04 	0.04 	0.00239625 	
0.591239 	1.38881e-08 	0.92 	0.04 	0.04 	0.00235859 	
0.675684 	1.38881e-08 	0.92 	0.04 	0.04 	0.00232092 	
0.760128 	1.31167e-08 	0.92 	0.04 	0.04 	0.00228326 	
ZONE T = "t = 0.00191754 [s]" I = 10 SOLUTIONTIME = 1.9175405923288E-03
0.000128 	1.38881e-08 	0.92 	0.04 	0.04 	0.00262223 	
0.0845724 	1.38881e-08 	0.92 	0.04 	0.04 	0.00258456 	
0.169017 	1.38881e-08 	0.92 	0.04 	0.04 	0.0025469 	
0.253461 	1.38881e-08 	0.92 	0.04 	0.04 	0.00250923 	
0.337906 	1.38881e-08 	0.92 	0.04 	0.04 	0.00247157 	
0.42235 	1.38881e-08 	0.92 	0.04 	0.04 	0.0024339 	
0.506795 	1.38881e-08 	0.92 	0.04 	0.04 	0.00239624 	
0.591239 	1.38881e-08 	0.92 	0.04 	0.04 	0.00235857 	
0.675684 	1.38881e-08 	0.92 	0.04 	0.04 	0.00232091 	
0.760128 	1.31167e-08 	0.92 	0.04 	0.04 	0.00228324 	
ZONE T = "t = 0.0028763 [s]" I = 10 SOLUTIONTIME = 2.8762958884933E-03
0.000128 	1.38881e-08 	0.92 	0.04 	0.04 	0.00262221 	
0.0845724 	1.38881e-08 	0.92 	0.04 	0.04 	0.00258455 	
0.169017 	1.38881e-08 	0.92 	0.04 	0.04 	0.00254688 	
0.253461 	1.38881e-08 	0.92 	0.04 	0.04 	0.00250922 	
0.337906 	1.38881e-08 	0.92 	0.04 	0.04 	0.00247155 	
0.42235 	1.38881e-08 	0.92 	0.04 	0.04 	0.00243389 	
0.506795 	1.38881e-08 	0.92 	0.04 	0.04 	0.00239623 	
0.591239 	1.38881e-08 	0.92 	0.04 	0.04 	0.00235856 	
0.675684 	1.38881e-08 	0.92 	0.04 	0.04 	0.0023209 	
0.760128 	1.31167e-08 	0.92 	0.04 	0.04 	0.00228323 	
ZONE T = "t = 0.00431443 [s]" I = 10 SOLUTIONTIME = 4.3144288327399E-03
0.000128 	1.38881e-08 	0.92 	0.04 	0.04 	0.0026222 	
0.0845724 	1.38881e-08 	0.92 	0.04 	0.04 	0.00258454 	
0.169017 	1.38881e-08 	0.92 	0.04 	0.04 	0.00254687 	
0.253461 	1.38881e-08 	0.92 	0.04 	0.04 	0.00250921 	
0.337906 	1.38881e-08 	0.92 	0.04 	0.04 	0.00247154 	
0.42235 	1.38881e-08 	0.92 	0.04 	0.04 	0.00243388 	
0.506795 	1.38881e-08 	0.92 	0.04 	0.04 	0.00239621 	
0.591239 	1.38881e-08 	0.92 	0.04 	0.04 	0.00235855 	
0.675684 	1.38881e-08 	0.92 	0.04 	0.04 	0.00232089 	
0.760128 	1.31167e-08 	0.92 	0.04 	0.04 	0.00228322 	
ZONE T = "t = 0.00647163 [s]" I = 10 SOLUTIONTIME = 6.4716282491098E-03
0.000128 	1.38881e-08 	0.92 	0.04 	0.04 	0.00262219 	
0.0845724 	1.38881e-08 	0.92 	0.04 	0.04 	0.00258453 	
0.169017 	1.38881e-08 	0.92 	0.04 	0.04 	0.00254686 	
0.253461 	1.38881e-08 	0.92 	0.04 	0.04 	0.0025092 	
0.337906 	1.38881e-08 	0.92 	0.04 	0.04 	0.00247153 	
0.42235 	1.38881e-08 	0.92 	0.04 	0.04 	0.00243387 	
0.506795 	1.38881e-08 	0.92 	0.04 	0.04 	0.00239621 	
0.591239 	1.38881e-08 	0.92 	0.04 	0.04 	0.00235854 	
0.675684 	1.38881e-08 	0.92 	0.04 	0.04 	0.00232088 	
0.760128 	1.31167e-08 	0.92 	0.04 	0.04 	0.00228321 	
ZONE T = "t = 0.00970743 [s]" I = 10 SOLUTIONTIME = 9.7074273736648E-03
0.000128 	1.38881e-08 	0.92 	0.04 	0.04 	0.00262218 	
0.0845724 	1.38881e-08 	0.92 	0.04 	0.04 	0.00258452 	
0.169017 	1.38881e-08 	0.92 	0.04 	0.04 	0.00254686 	
0.253461 	1.38881e-08 	0.92 	0.04 	0.04 	0.00250919 	
0.337906 	1.38881e-08 	0.92 	0.04 	0.04 	0.00247153 	
0.42235 	1.38881e-08 	0.92 	0.04 	0.04 	0.00243386 	
0.506795 	1.38881e-08 	0.92 	0.04 	0.04 	0.0023962 	
0.591239 	1.38881e-08 	0.92 	0.04 	0.04 	0.00235853 	
0.675684 	1.38881e-08 	0.92 	0.04 	0.04 	0.00232087 	
0.760128 	1.31167e-08 	0.92 	0.04 	0.04 	0.0022832 	
ZONE T = "t = 0.0145611 [s]" I = 10 SOLUTIONTIME = 1.4561126060497E-02
0.000128 	1.38881e-08 	0.92 	0.04 	0.04 	0.00262218 	
0.0845724 	1.38881e-08 	0.92 	0.04 	0.04 	0.00258451 	
0.169017 	1.38881e-08 	0.92 	0.04 	0.04 	0.00254685 	
0.253461 	1.38881e-08 	0.92 	0.04 	0.04 	0.00250918 	
0.337906 	1.38881e-08 	0.92 	0.04 	0.04 	0.00247152 	
0.42235 	1.38881e-08 	0.92 	0.04 	0.04 	0.00243385 	
0.506795 	1.38881e-08 	0.92 	0.04 	0.04 	0.00239619 	
0.591239 	1.38881e-08 	0.92 	0.04 	0.04 	0.00235852 	
0.675684 	1.38881e-08 	0.92 	0.04 	0.04 	0.00232086 	
0.760128 	1.31167e-08 	0.92 	0.04 	0.04 	0.00228319 	
ZONE T = "t = 0.0218417 [s]" I = 10 SOLUTIONTIME = 2.1841674090746E-02
0.000128 	1.38881e-08 	0.92 	0.04 	0.04 	0.00262216 	
0.0845724 	1.38881e-08 	0.92 	0.04 	0.04 	0.0025845 	
0.169017 	1.38881e-08 	0.92 	0.04 	0.04 	0.00254683 	
0.253461 	1.38881e-08 	0.92 	0.04 	0.04 	0.00250917 	
0.337906 	1.38881e-08 	0.92 	0.04 	0.04 	0.00247151 	
0.42235 	1.38881e-08 	0.92 	0.04 	0.04 	0.00243384 	
0.506795 	1.38881e-08 	0.92 	0.04 	0.04 	0.00239618 	
0.591239 	1.38881e-08 	0.92 	0.04 	0.04 	0.00235851 	
0.675684 	1.38881e-08 	0.92 	0.04 	0.04 	0.00232085 	
0.760128 	1.31167e-08 	0.92 	0.04 	0.04 	0.00228318 	
ZONE T = "t = 0.0327625 [s]" I = 10 SOLUTIONTIME = 3.2762496136119E-02
0.000128 	1.38881e-08 	0.92 	0.04 	0.04 	0.00262215 	
0.0845724 	1.38881e-08 	0.92 	0.04 	0.04 	0.00258448 	
0.169017 	1.38881e-08 	0.92 	0.04 	0.04 	0.00254682 	
0.253461 	1.38881e-08 	0.92 	0.04 	0.04 	0.00250915 	
0.337906 	1.38881e-08 	0.92 	0.04 	0.04 	0.00247149 	
0.42235 	1.38881e-08 	0.92 	0.04 	0.04 	0.00243382 	
0.506795 	1.38881e-08 	0.92 	0.04 	0.04 	0.00239616 	
0.591239 	1.38881e-08 	0.92 	0.04 	0.04 	0.00235849 	
0.675684 	1.38881e-08 	0.92 	0.04 	0.04 	0.00232083 	
0.760128 	1.31167e-08 	0.92 	0.04 	0.04 	0.00228316 	
ZONE T = "t = 0.0491437 [s]" I = 10 SOLUTIONTIME = 4.9143729204178E-02
0.000128 	1.38881e-08 	0.92 	0.04 	0.04 	0.00262212 	
0.0845724 	1.38881e-08 	0.92 	0.04 	0.04 	0.00258445 	
0.169017 	1.38881e-08 	0.92 	0.04 	0.04 	0.00254679 	
0.253461 	1.38881e-08 	0.92 	0.04 	0.04 	0.00250913 	
0.337906 	1.38881e-08 	0.92 	0.04 	0.04 	0.00247146 	
0.42235 	1.38881e-08 	0.92 	0.04 	0.04 	0.0024338 	
0.506795 	1.38881e-08 	0.92 	0.04 	0.04 	0.00239613 	
0.591239 	1.38881e-08 	0.92 	0.04 	0.04 	0.00235847 	
0.675684 	1.38881e-08 	0.92 	0.04 	0.04 	0.0023208 	
0.760128 	1.31167e-08 	0.92 	0.04 	0.04 	0.00228314 	
ZONE T = "t = 0.0737156 [s]" I = 10 SOLUTIONTIME = 7.3715578806267E-02
0.000128 	1.38881e-08 	0.92 	0.04 	0.04 	0.00262208 	
0.0845724 	1.38881e-08 	0.92 	0.04 	0.04 	0.00258441 	
0.169017 	1.38881e-08 	0.92 	0.04 	0.04 	0.00254675 	
0.253461 	1.38881e-08 	0.92 	0.04 	0.04 	0.00250909 	
0.337906 	1.38881e-08 	0.92 	0.04 	0.04 	0.00247142 	
0.42235 	1.38881e-08 	0.92 	0.04 	0.04 	0.00243376 	
0.506795 	1.38881e-08 	0.92 	0.04 	0.04 	0.00239609 	
0.591239 	1.38881e-08 	0.92 	0.04 	0.04 	0.00235843 	
0.675684 	1.38881e-08 	0.92 	0.04 	0.04 	0.00232076 	
0.760128 	1.31167e-08 	0.92 	0.04 	0.04 	0.0022831 	
ZONE T = "t = 0.110573 [s]" I = 10 SOLUTIONTIME = 1.1057335320940E-01
0.000128 	1.38881e-08 	0.92 	0.04 	0.04 	0.00262202 	
0.0845724 	1.38881e-08 	0.92 	0.04 	0.04 	0.00258436 	
0.169017 	1.38881e-08 	0.92 	0.04 	0.04 	0.00254669 	
0.253461 	1.38881e-08 	0.92 	0.04 	0.04 	0.00250903 	
0.337906 	1.38881e-08 	0.92 	0.04 	0.04 	0.00247136 	
0.42235 	1.38881e-08 	0.92 	0.04 	0.04 	0.0024337 	
0.506795 	1.38881e-08 	0.92 	0.04 	0.04 	0.00239603 	
0.591239 	1.38881e-08 	0.92 	0.04 	0.04 	0.00235837 	
0.675684 	1.38881e-08 	0.92 	0.04 	0.04 	0.0023207 	
0.760128 	1.31167e-08 	0.92 	0.04 	0.04 	0.00228304 	
ZONE T = "t = 0.16586 [s]" I = 10 SOLUTIONTIME = 1.6586001481410E-01
0.000128 	1.38881e-08 	0.92 	0.04 	0.04 	0.00262193 	
0.0845724 	1.38881e-08 	0.92 	0.04 	0.04 	0.00258427 	
0.169017 	1.38881e-08 	0.92 	0.04 	0.04 	0.00254661 	
0.253461 	1.38881e-08 	0.92 	0.04 	0.04 	0.00250894 	
0.337906 	1.38881e-08 	0.92 	0.04 	0.04 	0.00247128 	
0.42235 	1.38881e-08 	0.92 	0.04 	0.04 	0.00243361 	
0.506795 	1.38881e-08 	0.92 	0.04 	0.04 	0.00239595 	
0.591239 	1.38881e-08 	0.92 	0.04 	0.04 	0.00235828 	
0.675684 	1.38881e-08 	0.92 	0.04 	0.04 	0.00232062 	
0.760128 	1.31167e-08 	0.92 	0.04 	0.04 	0.00228295 	
ZONE T = "t = 0.24879 [s]" I = 10 SOLUTIONTIME = 2.4879000722115E-01
0.000128 	1.38881e-08 	0.92 	0.04 	0.04 	0.00262181 	
0.0845724 	1.38881e-08 	0.92 	0.04 	0.04 	0.00258414 	
0.169017 	1.38881e-08 	0.92 	0.04 	0.04 	0.00254648 	
0.253461 	1.38881e-08 	0.92 	0.04 	0.04 	0.00250882 	
0.337906 	1.38881e-08 	0.92 	0.04 	0.04 	0.00247115 	
0.42235 	1.38881e-08 	0.92 	0.04 	0.04 	0.00243349 	
0.506795 	1.38881e-08 	0.92 	0.04 	0.04 	0.00239582 	
0.591239 	1.38881e-08 	0.92 	0.04 	0.04 	0.00235816 	
0.675684 	1.38881e-08 	0.92 	0.04 	0.04 	0.00232049 	
0.760128 	1.31167e-08 	0.92 	0.04 	0.04 	0.00228283 	
ZONE T = "t = 0.373185 [s]" I = 10 SOLUTIONTIME = 3.7318499583173E-01
0.000128 	1.38881e-08 	0.92 	0.0400001 	0.0400001 	0.00262163 	
0.0845724 	1.38881e-08 	0.92 	0.04 	0.04 	0.00258396 	
0.169017 	1.38881e-08 	0.92 	0.04 	0.04 	0.0025463 	
0.253461 	1.38881e-08 	0.92 	0.04 	0.04 	0.00250863 	
0.337906 	1.38881e-08 	0.92 	0.04 	0.04 	0.00247097 	
0.42235 	1.38881e-08 	0.92 	0.04 	0.04 	0.00243331 	
0.506795 	1.38881e-08 	0.92 	0.04 	0.04 	0.00239564 	
0.591239 	1.38881e-08 	0.92 	0.04 	0.04 	0.00235798 	
0.675684 	1.38881e-08 	0.92 	0.04 	0.04 	0.00232031 	
0.760128 	1.31167e-08 	0.92 	0.0399999 	0.0399999 	0.00228265 	
ZONE T = "t = 0.559777 [s]" I = 10 SOLUTIONTIME = 5.5977747874759E-01