TITLE = "Solution on Domain BulkDomain1D_0"
VARIABLES = "x [m]"  
"Vel_axial" 	"MF_sp(ECDMC)" 	"MF_sp(Li+)" 	"MF_sp(PF6-)" 	"Volt(Electroly)" 	"Volt(AnodeVolt)" 	"Temperature" 	
"Potential Drop Electrode-Electrolyte [V]" 	"Surf_0 Equilibrium Potential Drop Electrode-Electrolyte [V]" 	"Overpotential_0 [V]" 	"Current Source [A/m^2]" 	"Li+ flux [kmol/m^2/s]" 	"Electrolyte Current [A/m^2]" 	"Electrode Current [A/m^2]" 	
"Capacity discharged [A-s]" 	"Depth of discharge [-]" 	"Capacity remaining [A-s]" 	"Initial capacity [A-s]" 	"Porosity []" 	"Surface Area [m2/m2] (area per area)" 	"Specific current (per particle area) [A/m^2]" 	"Control volume thickness [m]" 	
"Moles Li_C6-bulk [mol/m^2] (per electrode area)" 	"Moles V_C6-bulk [mol/m^2] (per electrode area)" 	"qHeat_accum [J/m3]" 	"qHeat_step [W/m3]" 	"Joule_Lyte [W/m3]" 	"Joule_Solid [W/m3]" 	"electrodHeat [W/m3]" 	"OverpotHeat [W/m3]" 	"deltaSHeat [W/m3]" 	

ZONE T = "t = 0 [s]" I = 10 SOLUTIONTIME = 0.0000000000000E+00
0 	0 	0.92 	0.04 	0.04 	-0.07 	0 	298.15 	
0 	0 	0 	0 	0 	0 	15.4651 	
0 	0 	0 	0 	0.35 	8.53017 	3.62598 	4.37444e-05 	
0.00379119 	0.000947796 	0 	0.0 	 0.0 	 0.0 	 0.0 	 0.0 	 0.0 	 
8.74889e-05 	0 	0.92 	0.04 	0.04 	-0.07 	0 	298.15 	
0 	0 	0 	0 	0 	0 	-0 	
0 	0 	0 	0 	0.35 	17.0603 	3.62598 	8.74889e-05 	
0.00758237 	0.00189559 	0 	0.0 	 0.0 	 0.0 	 0.0 	 0.0 	 0.0 	 
0.000174978 	0 	0.92 	0.04 	0.04 	-0.07 	0 	298.15 	
0 	0 	0 	0 	0 	0 	-0 	
0 	0 	0 	0 	0.35 	17.0603 	3.62598 	8.74889e-05 	
0.00758237 	0.00189559 	0 	0.0 	 0.0 	 0.0 	 0.0 	 0.0 	 0.0 	 
0.000262467 	0 	0.92 	0.04 	0.04 	-0.07 	0 	298.15 	
0 	0 	0 	0 	0 	0 	-0 	
0 	0 	0 	0 	0.35 	17.0603 	3.62598 	8.74889e-05 	
0.00758237 	0.00189559 	0 	0.0 	 0.0 	 0.0 	 0.0 	 0.0 	 0.0 	 
0.000349956 	0 	0.92 	0.04 	0.04 	-0.07 	0 	298.15 	
0 	0 	0 	0 	0 	0 	-0 	
0 	0 	0 	0 	0.35 	17.0603 	3.62598 	8.74889e-05 	
0.00758237 	0.00189559 	0 	0.0 	 0.0 	 0.0 	 0.0 	 0.0 	 0.0 	 
0.000437444 	0 	0.92 	0.04 	0.04 	-0.07 	0 	298.15 	
0 	0 	0 	0 	0 	0 	-0 	
0 	0 	0 	0 	0.35 	17.0603 	3.62598 	8.74889e-05 	
0.00758237 	0.00189559 	0 	0.0 	 0.0 	 0.0 	 0.0 	 0.0 	 0.0 	 
0.000524933 	0 	0.92 	0.04 	0.04 	-0.07 	0 	298.15 	
0 	0 	0 	0 	0 	0 	-0 	
0 	0 	0 	0 	0.35 	17.0603 	3.62598 	8.74889e-05 	
0.00758237 	0.00189559 	0 	0.0 	 0.0 	 0.0 	 0.0 	 0.0 	 0.0 	 
0.000612422 	0 	0.92 	0.04 	0.04 	-0.07 	0 	298.15 	
0 	0 	0 	0 	0 	0 	-0 	
0 	0 	0 	0 	0.35 	17.0603 	3.62598 	8.74889e-05 	
0.00758237 	0.00189559 	0 	0.0 	 0.0 	 0.0 	 0.0 	 0.0 	 0.0 	 
0.000699911 	0 	0.92 	0.04 	0.04 	-0.07 	0 	298.15 	
0 	0 	0 	0 	0 	0 	-0 	
0 	0 	0 	0 	0.35 	17.0603 	3.62598 	8.74889e-05 	
0.00758237 	0.00189559 	0 	0.0 	 0.0 	 0.0 	 0.0 	 0.0 	 0.0 	 
0.0007874 	0 	0.92 	0.04 	0.04 	-0.07 	0 	298.15 	
0 	0 	0 	0 	0 	15.4651 	0 	
0 	0 	0 	0 	0.35 	8.53017 	3.62598 	4.37444e-05 	
0.00379119 	0.000947796 	0 	0.0 	 0.0 	 0.0 	 0.0 	 0.0 	 0.0 	 
ZONE T = "t = 1e-08 [s]" I = 10 SOLUTIONTIME = 1.0000000000000E-08
0 	1.16996e-09 	0.92 	0.04 	0.04 	0.0291728 	0 	298.198 	
0.07 	-0.0409067 	0.110907 	30.9302 	-0 	0.842415 	29.2043 	
0 	45724.2 	848.03 	962.628 	0.35 	8.53017 	0.197516 	4.37444e-05 	
0.00379119 	0.000947796 	21636.6 	2.16366e+12 	0.000305757 	0.00153497 	2.16366e+12 	2.16366e+12 	0 	
8.74889e-05 	3.48715e-09 	0.92 	0.04 	0.04 	0.0291727 	-4.73498e-09 	298.151 	
0.07 	-0.0409067 	0.110907 	61.8605 	-0 	3.3533 	26.6934 	
0 	91448.4 	1696.06 	1925.26 	0.35 	17.0603 	0.195598 	8.74889e-05 	
0.00758237 	0.00189559 	274.019 	2.74019e+10 	0.00151092 	0.001365 	2.74019e+10 	2.74019e+10 	0 	
0.000174978 	5.80406e-09 	0.92 	0.04 	0.04 	0.0291727 	-8.91287e-09 	298.15 	
0.07 	-0.0409067 	0.110907 	61.8605 	-0 	6.69004 	23.3567 	
0 	91448.4 	1696.06 	1925.26 	0.35 	17.0603 	0.195574 	8.74889e-05 	
0.00758237 	0.00189559 	2.80429 	2.80429e+08 	0.00512019 	0.00104632 	2.80429e+08 	2.80429e+08 	0 	
0.000262467 	8.12099e-09 	0.92 	0.04 	0.04 	0.0291726 	-1.25337e-08 	298.15 	
0.07 	-0.0409067 	0.110907 	61.8605 	-0 	10.0266 	20.0201 	
0 	91448.4 	1696.06 	1925.26 	0.35 	17.0603 	0.195575 	8.74889e-05 	
0.00758237 	0.00189559 	-0.623552 	-6.23552e+07 	0.0111274 	0.00077014 	-6.23552e+07 	-6.23552e+07 	0 	
0.000349956 	1.04379e-08 	0.92 	0.04 	0.04 	0.0291725 	-1.55975e-08 	298.15 	
0.07 	-0.0409067 	0.110907 	61.8605 	-0 	13.3632 	16.6836 	
0 	91448.4 	1696.06 	1925.26 	0.35 	17.0603 	0.195577 	8.74889e-05 	
0.00758237 	0.00189559 	-0.686632 	-6.86632e+07 	0.0195328 	0.00053645 	-6.86632e+07 	-6.86632e+07 	0 	
0.000437444 	1.27549e-08 	0.92 	0.04 	0.04 	0.0291724 	-1.81043e-08 	298.15 	
0.07 	-0.0409067 	0.110907 	61.8605 	-0 	16.6998 	13.347 	
0 	91448.4 	1696.06 	1925.26 	0.35 	17.0603 	0.195579 	8.74889e-05 	
0.00758237 	0.00189559 	-0.665308 	-6.65308e+07 	0.0303363 	0.000345246 	-6.65308e+07 	-6.65308e+07 	0 	
0.000524933 	1.50723e-08 	0.92 	0.04 	0.04 	0.0291722 	-2.00541e-08 	298.15 	
0.07 	-0.0409067 	0.110907 	61.8605 	-0 	20.0364 	10.0103 	
0 	91448.4 	1696.06 	1925.26 	0.35 	17.0603 	0.195582 	8.74889e-05 	
0.00758237 	0.00189559 	-0.670938 	-6.70938e+07 	0.0435381 	0.000196528 	-6.70938e+07 	-6.70938e+07 	0 	
0.000612422 	1.73893e-08 	0.92 	0.04 	0.04 	0.029172 	-2.14467e-08 	298.15 	
0.07 	-0.0409067 	0.110907 	61.8605 	-0 	23.3731 	6.67361 	
0 	91448.4 	1696.06 	1925.26 	0.35 	17.0603 	0.195586 	8.74889e-05 	
0.00758237 	0.00189559 	-0.626617 	-6.26617e+07 	0.0591384 	9.02983e-05 	-6.26617e+07 	-6.26617e+07 	0 	
0.000699911 	1.97064e-08 	0.92 	0.04 	0.04 	0.0291717 	-2.22824e-08 	298.15 	
0.07 	-0.0409067 	0.110907 	61.8605 	-0 	26.7099 	3.33684 	
0 	91448.4 	1696.06 	1925.26 	0.35 	17.0603 	0.19559 	8.74889e-05 	
0.00758237 	0.00189559 	-0.706633 	-7.06633e+07 	0.0771373 	2.65589e-05 	-7.06633e+07 	-7.06633e+07 	0 	
0.0007874 	2.08657e-08 	0.92 	0.04 	0.04 	0.0291715 	-2.25609e-08 	298.15 	
0.07 	-0.0409067 	0.110907 	30.9302 	-0 	29.2125 	0.83422 	
0 	45724.2 	848.03 	962.628 	0.35 	8.53017 	0.195594 	4.37444e-05 	
0.00379119 	0.000947796 	-8.54521e-05 	-8545.21 	0.0867365 	5.31192e-06 	-8545.3 	-8545.3 	0 	
ZONE T = "t = 2e-08 [s]" I = 10 SOLUTIONTIME = 2.0000000000000E-08
0 	1.18068e-09 	0.92 	0.04 	0.04 	0.0291782 	0 	298.245 	
-0.0291728 	-0.0409402 	0.0117675 	1.68484 	8.73101e-09 	0.850138 	29.1998 	
4.22272e-11 	45724.2 	848.03 	962.628 	0.35 	8.53017 	0.199325 	4.37444e-05 	
0.00379119 	0.000947796 	42644.1 	2.10075e+12 	0.000617171 	0.00306862 	2.10075e+12 	2.10075e+12 	0 	
8.74889e-05 	3.49737e-09 	0.92 	0.04 	0.04 	0.0291781 	-4.73293e-09 	298.152 	
-0.0291727 	-0.0409071 	0.0117344 	3.33696 	2.60235e-08 	3.36838 	26.6815 	
8.36343e-11 	91448.4 	1696.06 	1925.26 	0.35 	17.0603 	0.195554 	8.74889e-05 	
0.00758237 	0.00189559 	807.972 	5.33953e+10 	0.00303265 	0.00272878 	5.33953e+10 	5.33953e+10 	0 	
0.000174978 	5.81322e-09 	0.92 	0.04 	0.04 	0.0291781 	-8.90889e-09 	298.15 	
-0.0291727 	-0.0409067 	0.011734 	3.33656 	4.33139e-08 	6.704 	23.3459 	
8.36242e-11 	91448.4 	1696.06 	1925.26 	0.35 	17.0603 	0.195484 	8.74889e-05 	
0.00758237 	0.00189559 	12.3399 	9.53557e+08 	0.0102602 	0.00209167 	9.53557e+08 	9.53557e+08 	0 	
0.000262467 	8.12908e-09 	0.92 	0.04 	0.04 	0.029178 	-1.25281e-08 	298.15 	
-0.0291726 	-0.0409067 	0.0117341 	3.33658 	6.06044e-08 	10.039 	20.0109 	
8.36247e-11 	91448.4 	1696.06 	1925.26 	0.35 	17.0603 	0.195484 	8.74889e-05 	
0.00758237 	0.00189559 	-1.14965 	-5.26101e+07 	0.0222814 	0.00153957 	-5.26101e+07 	-5.26101e+07 	0 	
0.000349956 	1.0445e-08 	0.92 	0.04 	0.04 	0.0291779 	-1.55905e-08 	298.15 	
-0.0291725 	-0.0409067 	0.0117342 	3.33661 	7.7895e-08 	13.374 	16.6759 	
8.36254e-11 	91448.4 	1696.06 	1925.26 	0.35 	17.0603 	0.195485 	8.74889e-05 	
0.00758237 	0.00189559 	-1.32478 	-6.38145e+07 	0.0390966 	0.0010724 	-6.38145e+07 	-6.38145e+07 	0 	
0.000437444 	1.27609e-08 	0.92 	0.04 	0.04 	0.0291778 	-1.80961e-08 	298.15 	
-0.0291724 	-0.0409067 	0.0117343 	3.33665 	9.51859e-08 	16.7091 	13.3408 	
8.36264e-11 	91448.4 	1696.06 	1925.26 	0.35 	17.0603 	0.195488 	8.74889e-05 	
0.00758237 	0.00189559 	-1.34926 	-6.83952e+07 	0.060706 	0.000690173 	-6.83952e+07 	-6.83952e+07 	0 	
0.000524933 	1.50768e-08 	0.92 	0.04 	0.04 	0.0291776 	-2.00449e-08 	298.15 	
-0.0291722 	-0.0409067 	0.0117345 	3.3367 	1.12477e-07 	20.0442 	10.0057 	
8.36277e-11 	91448.4 	1696.06 	1925.26 	0.35 	17.0603 	0.195491 	8.74889e-05 	
0.00758237 	0.00189559 	-1.35471 	-6.8377e+07 	0.0871097 	0.000392874 	-6.8377e+07 	-6.8377e+07 	0 	
0.000612422 	1.73928e-08 	0.92 	0.04 	0.04 	0.0291774 	-2.1437e-08 	298.15 	
-0.029172 	-0.0409067 	0.0117347 	3.33676 	1.29768e-07 	23.3794 	6.67053 	
8.36292e-11 	91448.4 	1696.06 	1925.26 	0.35 	17.0603 	0.195494 	8.74889e-05 	
0.00758237 	0.00189559 	-1.30182 	-6.752e+07 	0.118308 	0.000180513 	-6.752e+07 	-6.752e+07 	0 	
0.000699911 	1.97088e-08 	0.92 	0.04 	0.04 	0.0291771 	-2.22722e-08 	298.15 	
-0.0291718 	-0.0409067 	0.0117349 	3.33683 	1.4706e-07 	26.7146 	3.3353 	
8.36309e-11 	91448.4 	1696.06 	1925.26 	0.35 	17.0603 	0.195498 	8.74889e-05 	
0.00758237 	0.00189559 	-1.27903 	-5.72399e+07 	0.154302 	5.30932e-05 	-5.72399e+07 	-5.72399e+07 	0 	
0.0007874 	2.08668e-08 	0.92 	0.04 	0.04 	0.0291769 	-2.25506e-08 	298.15 	
-0.0291715 	-0.0409067 	0.0117352 	1.66845 	1.4706e-07 	29.2161 	0.833835 	
4.18164e-11 	45724.2 	848.03 	962.628 	0.35 	8.53017 	0.195503 	4.37444e-05 	
0.00379119 	0.000947796 	-0.000167659 	-8220.69 	0.173497 	1.06189e-05 	-8220.78 	-8220.78 	0 	
ZONE T = "t = 3e-08 [s]" I = 10 SOLUTIONTIME = 3.0000000000000E-08
0 	1.19116e-09 	0.92 	0.04 	0.04 	0.0291836 	0 	298.29 	
-0.0291782 	-0.0409728 	0.0117946 	1.70028 	8.81107e-09 	0.857684 	29.1952 	
8.48412e-11 	45724.2 	848.03 	962.628 	0.35 	8.53017 	0.201094 	4.37444e-05 	
0.00379119 	0.000947796 	63047.4 	2.04033e+12 	0.000934163 	0.00460096 	2.04033e+12 	2.04033e+12 	0 	
8.74889e-05 	3.50759e-09 	0.92 	0.04 	0.04 	0.0291835 	-4.73091e-09 	298.154 	
-0.0291781 	-0.040908 	0.0117298 	3.33621 	2.60998e-08 	3.38329 	26.6696 	
1.6725e-10 	91448.4 	1696.06 	1925.26 	0.35 	17.0603 	0.195532 	8.74889e-05 	
0.00758237 	0.00189559 	1587.53 	7.79556e+10 	0.00456516 	0.00409135 	7.79556e+10 	7.79556e+10 	0 	
0.000174978 	5.82237e-09 	0.92 	0.04 	0.04 	0.0291835 	-8.90491e-09 	298.15 	
-0.0291781 	-0.0409067 	0.0117286 	3.33501 	4.33823e-08 	6.71794 	23.335 	
1.6721e-10 	91448.4 	1696.06 	1925.26 	0.35 	17.0603 	0.195393 	8.74889e-05 	
0.00758237 	0.00189559 	31.4704 	1.91306e+09 	0.0154202 	0.00313604 	1.91306e+09 	1.91306e+09 	0 	
0.000262467 	8.13714e-09 	0.92 	0.04 	0.04 	0.0291834 	-1.25224e-08 	298.15 	
-0.029178 	-0.0409067 	0.0117287 	3.33501 	6.06648e-08 	10.0514 	20.0015 	
1.6721e-10 	91448.4 	1696.06 	1925.26 	0.35 	17.0603 	0.195392 	8.74889e-05 	
0.00758237 	0.00189559 	-1.34738 	-1.97725e+07 	0.033462 	0.00230828 	-1.97725e+07 	-1.97725e+07 	0 	
0.000349956 	1.04519e-08 	0.92 	0.04 	0.04 	0.0291833 	-1.55834e-08 	298.15 	
-0.0291779 	-0.0409067 	0.0117288 	3.33505 	7.79474e-08 	13.3849 	16.668 	
1.67212e-10 	91448.4 	1696.06 	1925.26 	0.35 	17.0603 	0.195394 	8.74889e-05 	
0.00758237 	0.00189559 	-1.976 	-6.51228e+07 	0.0586914 	0.00160786 	-6.51228e+07 	-6.51228e+07 	0 	
0.000437444 	1.27678e-08 	0.92 	0.04 	0.04 	0.0291832 	-1.80878e-08 	298.15 	
-0.0291778 	-0.0409067 	0.0117289 	3.33509 	9.52303e-08 	16.7184 	13.3345 	
1.67214e-10 	91448.4 	1696.06 	1925.26 	0.35 	17.0603 	0.195396 	8.74889e-05 	
0.00758237 	0.00189559 	-2.07394 	-7.24681e+07 	0.0911087 	0.00103478 	-7.24681e+07 	-7.24681e+07 	0 	
0.000524933 	1.50838e-08 	0.92 	0.04 	0.04 	0.029183 	-2.00357e-08 	298.15 	
-0.0291776 	-0.0409067 	0.0117291 	3.33514 	1.12513e-07 	20.0519 	10.001 	
1.67216e-10 	91448.4 	1696.06 	1925.26 	0.35 	17.0603 	0.195399 	8.74889e-05 	
0.00758237 	0.00189559 	-2.05517 	-7.00463e+07 	0.130714 	0.000589036 	-7.00463e+07 	-7.00463e+07 	0 	
0.000612422 	1.73987e-08 	0.92 	0.04 	0.04 	0.0291828 	-2.14271e-08 	298.15 	
-0.0291774 	-0.0409067 	0.0117293 	3.33519 	1.29797e-07 	23.3855 	6.6674 	
1.67219e-10 	91448.4 	1696.06 	1925.26 	0.35 	17.0603 	0.195402 	8.74889e-05 	
0.00758237 	0.00189559 	-2.05121 	-7.49389e+07 	0.177508 	0.000270644 	-7.49389e+07 	-7.49389e+07 	0 	
0.000699911 	1.97136e-08 	0.92 	0.04 	0.04 	0.0291826 	-2.2262e-08 	298.15 	
-0.0291772 	-0.0409067 	0.0117295 	3.33526 	1.47081e-07 	26.7192 	3.33374 	
1.67223e-10 	91448.4 	1696.06 	1925.26 	0.35 	17.0603 	0.195406 	8.74889e-05 	
0.00758237 	0.00189559 	-1.95246 	-6.73424e+07 	0.231492 	7.96026e-05 	-6.73424e+07 	-6.73424e+07 	0 	
0.0007874 	2.08711e-08 	0.92 	0.04 	0.04 	0.0291823 	-2.25402e-08 	298.15 	
-0.0291769 	-0.0409067 	0.0117298 	1.66767 	1.47081e-07 	29.2195 	0.833444 	
8.36132e-11 	45724.2 	848.03 	962.628 	0.35 	8.53017 	0.195411 	4.37444e-05 	
0.00379119 	0.000947796 	-0.000269531 	-10187.2 	0.260281 	1.5921e-05 	-10187.3 	-10187.3 	0 	
ZONE T = "t = 4e-08 [s]" I = 10 SOLUTIONTIME = 4.0000000000000E-08
0 	1.20141e-09 	0.92 	0.04 	0.04 	0.029189 	0 	298.334 	
-0.0291836 	-0.0410044 	0.0118208 	1.71537 	8.88928e-09 	0.865062 	29.1909 	
1.27833e-10 	45724.2 	848.03 	962.628 	0.35 	8.53017 	0.202824 	4.37444e-05 	
0.00379119 	0.000947796 	82870.2 	1.98228e+12 	0.00125666 	0.00613202 	1.98228e+12 	1.98228e+12 	0 	
8.74889e-05 	3.51781e-09 	0.92 	0.04 	0.04 	0.029189 	-4.72895e-09 	298.156 	
-0.0291836 	-0.0409092 	0.0117256 	3.33584 	2.6176e-08 	3.39803 	26.6579 	
2.50856e-10 	91448.4 	1696.06 	1925.26 	0.35 	17.0603 	0.19553 	8.74889e-05 	
0.00758237 	0.00189559 	2599.43 	1.0119e+11 	0.00610845 	0.00545273 	1.0119e+11 	1.0119e+11 	0 	
0.000174978 	5.83155e-09 	0.92 	0.04 	0.04 	0.0291889 	-8.901e-09 	298.15 	
-0.0291835 	-0.0409068 	0.0117233 	3.33348 	4.34506e-08 	6.73191 	23.324 	
2.50757e-10 	91448.4 	1696.06 	1925.26 	0.35 	17.0603 	0.195304 	8.74889e-05 	
0.00758237 	0.00189559 	63.0111 	3.15407e+09 	0.0206001 	0.00417943 	3.15407e+09 	3.15407e+09 	0 	
0.000262467 	8.14522e-09 	0.92 	0.04 	0.04 	0.0291888 	-1.25168e-08 	298.15 	
-0.0291834 	-0.0409067 	0.0117233 	3.33345 	6.07249e-08 	10.0638 	19.9921 	
2.50756e-10 	91448.4 	1696.06 	1925.26 	0.35 	17.0603 	0.1953 	8.74889e-05 	
0.00758237 	0.00189559 	-1.1976 	1.49774e+07 	0.0446692 	0.00307626 	1.49774e+07 	1.49774e+07 	0 	
0.000349956 	1.04589e-08 	0.92 	0.04 	0.04 	0.0291887 	-1.55763e-08 	298.15 	
-0.0291833 	-0.0409067 	0.0117234 	3.33348 	7.79995e-08 	13.3957 	16.6602 	
2.50759e-10 	91448.4 	1696.06 	1925.26 	0.35 	17.0603 	0.195302 	8.74889e-05 	
0.00758237 	0.00189559 	-2.5979 	-6.21895e+07 	0.0783172 	0.0021428 	-6.21895e+07 	-6.21895e+07 	0 	
0.000437444 	1.27716e-08 	0.92 	0.04 	0.04 	0.0291886 	-1.80796e-08 	298.15 	
-0.0291832 	-0.0409067 	0.0117235 	3.33352 	9.52742e-08 	16.7277 	13.3283 	
2.50762e-10 	91448.4 	1696.06 	1925.26 	0.35 	17.0603 	0.195304 	8.74889e-05 	
0.00758237 	0.00189559 	-2.71467 	-6.40727e+07 	0.121545 	0.00137905 	-6.40727e+07 	-6.40727e+07 	0 	
0.000524933 	1.50842e-08 	0.92 	0.04 	0.04 	0.0291884 	-2.00266e-08 	298.15 	
-0.029183 	-0.0409067 	0.0117237 	3.33357 	1.12549e-07 	20.0596 	9.99629 	
2.50765e-10 	91448.4 	1696.06 	1925.26 	0.35 	17.0603 	0.195307 	8.74889e-05 	
0.00758237 	0.00189559 	-2.69865 	-6.43484e+07 	0.174352 	0.000785014 	-6.43484e+07 	-6.43484e+07 	0 	
0.000612422 	1.7398e-08 	0.92 	0.04 	0.04 	0.0291882 	-2.14173e-08 	298.15 	
-0.0291828 	-0.0409067 	0.0117239 	3.33363 	1.29825e-07 	23.3917 	6.66426 	
2.5077e-10 	91448.4 	1696.06 	1925.26 	0.35 	17.0603 	0.19531 	8.74889e-05 	
0.00758237 	0.00189559 	-2.75868 	-7.07475e+07 	0.236739 	0.000360689 	-7.07475e+07 	-7.07475e+07 	0 	
0.000699911 	1.97119e-08 	0.92 	0.04 	0.04 	0.029188 	-2.22517e-08 	298.15 	
-0.0291826 	-0.0409067 	0.0117241 	3.3337 	1.471e-07 	26.7237 	3.33217 	
2.50775e-10 	91448.4 	1696.06 	1925.26 	0.35 	17.0603 	0.195314 	8.74889e-05 	
0.00758237 	0.00189559 	-2.61784 	-6.65382e+07 	0.308708 	0.000106087 	-6.65382e+07 	-6.65382e+07 	0 	
0.0007874 	2.08696e-08 	0.92 	0.04 	0.04 	0.0291877 	-2.25299e-08 	298.15 	
-0.0291823 	-0.0409067 	0.0117244 	1.66689 	1.471e-07 	29.2229 	0.833052 	
1.2539e-10 	45724.2 	848.03 	962.628 	0.35 	8.53017 	0.195319 	4.37444e-05 	
0.00379119 	0.000947796 	-0.000356978 	-8744.71 	0.347088 	2.1218e-05 	-8744.8 	-8744.8 	0 	
ZONE T = "t = 5.5e-08 [s]" I = 10 SOLUTIONTIME = 5.5000000000000E-08
0 	1.21625e-09 	0.92 	0.04 	0.04 	0.0291971 	0 	298.397 	
-0.029189 	-0.0410351 	0.0118461 	1.73012 	8.96574e-09 	0.875746 	29.1847 	
1.71196e-10 	45724.2 	848.03 	962.628 	0.35 	8.53017 	0.205329 	4.37444e-05 	
0.00379119 	0.000947796 	111374 	1.90024e+12 	0.00116832 	0.00561726 	1.90024e+12 	1.90024e+12 	0 	
8.74889e-05 	3.53313e-09 	0.92 	0.04 	0.04 	0.0291971 	-4.72614e-09 	298.16 	
-0.029189 	-0.0409107 	0.0117218 	3.33581 	2.62523e-08 	3.41974 	26.6407 	
3.34461e-10 	91448.4 	1696.06 	1925.26 	0.35 	17.0603 	0.195571 	8.74889e-05 	
0.00758237 	0.00189559 	4597.63 	1.33213e+11 	0.00563169 	0.00499478 	1.33213e+11 	1.33213e+11 	0 	
0.000174978 	5.84531e-09 	0.92 	0.04 	0.04 	0.0291971 	-8.89525e-09 	298.15 	
-0.0291889 	-0.0409068 	0.0117179 	3.33196 	4.3519e-08 	6.75285 	23.3076 	
3.34265e-10 	91448.4 	1696.06 	1925.26 	0.35 	17.0603 	0.195174 	8.74889e-05 	
0.00758237 	0.00189559 	146.105 	5.53957e+09 	0.0189433 	0.0038282 	5.53957e+09 	5.53957e+09 	0 	
0.000262467 	8.15784e-09 	0.92 	0.04 	0.04 	0.029197 	-1.25085e-08 	298.15 	
-0.0291889 	-0.0409067 	0.0117179 	3.33188 	6.07852e-08 	10.0825 	19.9779 	
3.34263e-10 	91448.4 	1696.06 	1925.26 	0.35 	17.0603 	0.195162 	8.74889e-05 	
0.00758237 	0.00189559 	0.556224 	1.16922e+08 	0.0410267 	0.00281774 	1.16922e+08 	1.16922e+08 	0 	
0.000349956 	1.04704e-08 	0.92 	0.04 	0.04 	0.0291969 	-1.55658e-08 	298.15 	
-0.0291888 	-0.0409067 	0.011718 	3.33191 	7.80517e-08 	13.412 	16.6484 	
3.34266e-10 	91448.4 	1696.06 	1925.26 	0.35 	17.0603 	0.195163 	8.74889e-05 	
0.00758237 	0.00189559 	-3.56663 	-6.45821e+07 	0.0718839 	0.00196273 	-6.45821e+07 	-6.45821e+07 	0 	
0.000437444 	1.27825e-08 	0.92 	0.04 	0.04 	0.0291967 	-1.80673e-08 	298.15 	
-0.0291886 	-0.0409067 	0.0117181 	3.33195 	9.53183e-08 	16.7416 	13.3188 	
3.3427e-10 	91448.4 	1696.06 	1925.26 	0.35 	17.0603 	0.195166 	8.74889e-05 	
0.00758237 	0.00189559 	-3.73877 	-6.82733e+07 	0.111515 	0.00126316 	-6.82733e+07 	-6.82733e+07 	0 	
0.000524933 	1.50946e-08 	0.92 	0.04 	0.04 	0.0291966 	-2.0013e-08 	298.15 	
-0.0291884 	-0.0409067 	0.0117183 	3.332 	1.12585e-07 	20.0712 	9.98922 	
3.34275e-10 	91448.4 	1696.06 	1925.26 	0.35 	17.0603 	0.195169 	8.74889e-05 	
0.00758237 	0.00189559 	-3.69578 	-6.64751e+07 	0.159922 	0.000719043 	-6.64751e+07 	-6.64751e+07 	0 	
0.000612422 	1.74068e-08 	0.92 	0.04 	0.04 	0.0291964 	-2.14027e-08 	298.15 	
-0.0291882 	-0.0409067 	0.0117185 	3.33206 	1.29852e-07 	23.4009 	6.65955 	
3.34281e-10 	91448.4 	1696.06 	1925.26 	0.35 	17.0603 	0.195172 	8.74889e-05 	
0.00758237 	0.00189559 	-3.73992 	-6.5416e+07 	0.217103 	0.000330377 	-6.5416e+07 	-6.5416e+07 	0 	
0.000699911 	1.9719e-08 	0.92 	0.04 	0.04 	0.0291961 	-2.22366e-08 	298.15 	
-0.029188 	-0.0409067 	0.0117187 	3.33213 	1.4712e-07 	26.7306 	3.32981 	
3.34288e-10 	91448.4 	1696.06 	1925.26 	0.35 	17.0603 	0.195176 	8.74889e-05 	
0.00758237 	0.00189559 	-3.61082 	-6.61987e+07 	0.283061 	9.71718e-05 	-6.61987e+07 	-6.61987e+07 	0 	
0.0007874 	2.08746e-08 	0.92 	0.04 	0.04 	0.0291959 	-2.25145e-08 	298.15 	
-0.0291877 	-0.0409067 	0.011719 	1.6661 	1.4712e-07 	29.228 	0.832463 	
1.67148e-10 	45724.2 	848.03 	962.628 	0.35 	8.53017 	0.195181 	4.37444e-05 	
0.00379119 	0.000947796 	-0.000496539 	-9304.08 	0.318233 	1.94349e-05 	-9304.17 	-9304.17 	0 	
ZONE T = "t = 7.75e-08 [s]" I = 10 SOLUTIONTIME = 7.7500000000000E-08
0 	1.23739e-09 	0.92 	0.04 	0.04 	0.0292094 	0 	298.486 	
-0.0291971 	-0.0410793 	0.0118822 	1.75149 	9.07648e-09 	0.89097 	29.1762 	
2.37042e-10 	45724.2 	848.03 	962.628 	0.35 	8.53017 	0.208899 	4.37444e-05 	
0.00379119 	0.000947796 	151591 	1.78743e+12 	0.00112107 	0.00527153 	1.78743e+12 	1.78743e+12 	0 	
8.74889e-05 	3.556e-09 	0.92 	0.04 	0.04 	0.0292093 	-4.72219e-09 	298.169 	
-0.0291971 	-0.0409138 	0.0117167 	3.3365 	2.63667e-08 	3.45143 	26.6158 	
4.59895e-10 	91448.4 	1696.06 	1925.26 	0.35 	17.0603 	0.195716 	8.74889e-05 	
0.00758237 	0.00189559 	8548.78 	1.75606e+11 	0.0053378 	0.00468696 	1.75606e+11 	1.75606e+11 	0 	
0.000174978 	5.86597e-09 	0.92 	0.04 	0.04 	0.0292093 	-8.88693e-09 	298.151 	
-0.0291971 	-0.0409069 	0.0117099 	3.32973 	4.36217e-08 	6.7842 	23.283 	
4.59445e-10 	91448.4 	1696.06 	1925.26 	0.35 	17.0603 	0.194987 	8.74889e-05 	
0.00758237 	0.00189559 	373.557 	1.0109e+10 	0.017884 	0.00359186 	1.0109e+10 	1.0109e+10 	0 	
0.000262467 	8.17525e-09 	0.92 	0.04 	0.04 	0.0292092 	-1.24963e-08 	298.15 	
-0.029197 	-0.0409067 	0.0117097 	3.32953 	6.08758e-08 	10.1105 	19.9567 	
4.59435e-10 	91448.4 	1696.06 	1925.26 	0.35 	17.0603 	0.194956 	8.74889e-05 	
0.00758237 	0.00189559 	9.32695 	3.8981e+08 	0.0386586 	0.00264376 	3.8981e+08 	3.8981e+08 	0 	
0.000349956 	1.04845e-08 	0.92 	0.04 	0.04 	0.0292091 	-1.55504e-08 	298.15 	
-0.0291969 	-0.0409067 	0.0117098 	3.32955 	7.813e-08 	13.4365 	16.6307 	
4.59439e-10 	91448.4 	1696.06 	1925.26 	0.35 	17.0603 	0.194956 	8.74889e-05 	
0.00758237 	0.00189559 	-4.73169 	-5.17803e+07 	0.0676651 	0.00184154 	-5.17803e+07 	-5.17803e+07 	0 	
0.000437444 	1.27942e-08 	0.92 	0.04 	0.04 	0.029209 	-1.80493e-08 	298.15 	
-0.0291968 	-0.0409067 	0.01171 	3.32959 	9.53844e-08 	16.7625 	13.3047 	
4.59445e-10 	91448.4 	1696.06 	1925.26 	0.35 	17.0603 	0.194958 	8.74889e-05 	
0.00758237 	0.00189559 	-5.19296 	-6.46309e+07 	0.104904 	0.00118517 	-6.46309e+07 	-6.46309e+07 	0 	
0.000524933 	1.51038e-08 	0.92 	0.04 	0.04 	0.0292088 	-1.99928e-08 	298.15 	
-0.0291966 	-0.0409067 	0.0117101 	3.32964 	1.12639e-07 	20.0886 	9.97861 	
4.59452e-10 	91448.4 	1696.06 	1925.26 	0.35 	17.0603 	0.194961 	8.74889e-05 	
0.00758237 	0.00189559 	-5.17295 	-6.5652e+07 	0.150376 	0.000674647 	-6.5652e+07 	-6.5652e+07 	0 	
0.000612422 	1.74135e-08 	0.92 	0.04 	0.04 	0.0292086 	-2.13811e-08 	298.15 	
-0.0291964 	-0.0409067 	0.0117103 	3.3297 	1.29894e-07 	23.4147 	6.65247 	
4.5946e-10 	91448.4 	1696.06 	1925.26 	0.35 	17.0603 	0.194965 	8.74889e-05 	
0.00758237 	0.00189559 	-5.28924 	-6.88587e+07 	0.204082 	0.000309979 	-6.88587e+07 	-6.88587e+07 	0 	
0.000699911 	1.97233e-08 	0.92 	0.04 	0.04 	0.0292083 	-2.22141e-08 	298.15 	
-0.0291961 	-0.0409067 	0.0117106 	3.32977 	1.4715e-07 	26.7409 	3.32628 	
4.59469e-10 	91448.4 	1696.06 	1925.26 	0.35 	17.0603 	0.194969 	8.74889e-05 	
0.00758237 	0.00189559 	-5.04697 	-6.38287e+07 	0.266021 	9.11721e-05 	-6.38287e+07 	-6.38287e+07 	0 	
0.0007874 	2.08782e-08 	0.92 	0.04 	0.04 	0.0292081 	-2.24917e-08 	298.15 	
-0.0291959 	-0.0409067 	0.0117108 	1.66493 	1.4715e-07 	29.2356 	0.83158 	
2.2974e-10 	45724.2 	848.03 	962.628 	0.35 	8.53017 	0.194974 	4.37444e-05 	
0.00379119 	0.000947796 	-0.000731022 	-10421.4 	0.29905 	1.8235e-05 	-10421.5 	-10421.5 	0 	
ZONE T = "t = 1.1125e-07 [s]" I = 10 SOLUTIONTIME = 1.1125000000000E-07
0 	1.26679e-09 	0.92 	0.04 	0.04 	0.0292277 	0 	298.609 	
-0.0292094 	-0.0411416 	0.0119323 	1.78194 	9.23429e-09 	0.912181 	29.1652 	
3.37529e-10 	45724.2 	848.03 	962.628 	0.35 	8.53017 	0.213872 	4.37444e-05 	
0.00379119 	0.000947796 	206882 	1.63826e+12 	0.00110615 	0.00503756 	1.63826e+12 	1.63826e+12 	0 	
8.74889e-05 	3.58989e-09 	0.92 	0.04 	0.04 	0.0292276 	-4.7168e-09 	298.186 	
-0.0292093 	-0.04092 	0.0117106 	3.33899 	2.65373e-08 	3.49709 	26.5803 	
6.48187e-10 	91448.4 	1696.06 	1925.26 	0.35 	17.0603 	0.196095 	8.74889e-05 	
0.00758237 	0.00189559 	16256 	2.28364e+11 	0.0051773 	0.00447816 	2.28364e+11 	2.28364e+11 	0 	
0.000174978 	5.89685e-09 	0.92 	0.04 	0.04 	0.0292276 	-8.87509e-09 	298.152 	
-0.0292093 	-0.0409073 	0.011698 	3.32654 	4.37759e-08 	6.83091 	23.2465 	
6.47034e-10 	91448.4 	1696.06 	1925.26 	0.35 	17.0603 	0.194732 	8.74889e-05 	
0.00758237 	0.00189559 	1000.04 	1.85624e+10 	0.0172455 	0.00343104 	1.85624e+10 	1.85624e+10 	0 	
0.000262467 	8.20281e-09 	0.92 	0.04 	0.04 	0.0292275 	-1.24787e-08 	298.15 	
-0.0292092 	-0.0409067 	0.0116975 	3.32601 	6.10117e-08 	10.1524 	19.925 	
6.46995e-10 	91448.4 	1696.06 	1925.26 	0.35 	17.0603 	0.194649 	8.74889e-05 	
0.00758237 	0.00189559 	46.7635 	1.10923e+09 	0.0371704 	0.00252534 	1.10923e+09 	1.10923e+09 	0 	
0.000349956 	1.05087e-08 	0.92 	0.04 	0.04 	0.0292274 	-1.5528e-08 	298.15 	
-0.0292091 	-0.0409067 	0.0116976 	3.32602 	7.82476e-08 	13.4731 	16.6042 	
6.46999e-10 	91448.4 	1696.06 	1925.26 	0.35 	17.0603 	0.194646 	8.74889e-05 	
0.00758237 	0.00189559 	-4.79391 	-1.84349e+06 	0.0649579 	0.00175905 	-1.84349e+06 	-1.84349e+06 	0 	
0.000437444 	1.28147e-08 	0.92 	0.04 	0.04 	0.0292273 	-1.80228e-08 	298.15 	
-0.029209 	-0.0409067 	0.0116977 	3.32606 	9.54837e-08 	16.7939 	13.2835 	
6.47007e-10 	91448.4 	1696.06 	1925.26 	0.35 	17.0603 	0.194648 	8.74889e-05 	
0.00758237 	0.00189559 	-7.3525 	-6.39862e+07 	0.100609 	0.00113208 	-6.39862e+07 	-6.39862e+07 	0 	
0.000524933 	1.51208e-08 	0.92 	0.04 	0.04 	0.0292271 	-1.99633e-08 	298.15 	
-0.0292088 	-0.0409067 	0.0116979 	3.32611 	1.1272e-07 	20.1147 	9.96272 	
6.47017e-10 	91448.4 	1696.06 	1925.26 	0.35 	17.0603 	0.194651 	8.74889e-05 	
0.00758237 	0.00189559 	-7.4061 	-6.61673e+07 	0.144124 	0.000644428 	-6.61673e+07 	-6.61673e+07 	0 	
0.000612422 	1.7427e-08 	0.92 	0.04 	0.04 	0.0292269 	-2.13494e-08 	298.15 	
-0.0292086 	-0.0409067 	0.0116981 	3.32616 	1.29957e-07 	23.4355 	6.64188 	
6.47028e-10 	91448.4 	1696.06 	1925.26 	0.35 	17.0603 	0.194654 	8.74889e-05 	
0.00758237 	0.00189559 	-7.49117 	-6.52422e+07 	0.195504 	0.000296094 	-6.52422e+07 	-6.52422e+07 	0 	
0.000699911 	1.97333e-08 	0.92 	0.04 	0.04 	0.0292266 	-2.2181e-08 	298.15 	
-0.0292084 	-0.0409067 	0.0116983 	3.32623 	1.47194e-07 	26.7564 	3.32098 	
6.47041e-10 	91448.4 	1696.06 	1925.26 	0.35 	17.0603 	0.194658 	8.74889e-05 	
0.00758237 	0.00189559 	-6.90861 	-5.51597e+07 	0.25475 	8.70883e-05 	-5.51597e+07 	-5.51597e+07 	0 	
0.0007874 	2.08863e-08 	0.92 	0.04 	0.04 	0.0292264 	-2.24582e-08 	298.15 	
-0.0292081 	-0.0409067 	0.0116986 	1.66316 	1.47194e-07 	29.2471 	0.830256 	
3.23529e-10 	45724.2 	848.03 	962.628 	0.35 	8.53017 	0.194663 	4.37444e-05 	
0.00379119 	0.000947796 	-0.0010741 	-10165.3 	0.286339 	1.74182e-05 	-10165.4 	-10165.4 	0 	
ZONE T = "t = 1.61875e-07 [s]" I = 10 SOLUTIONTIME = 1.6187500000000E-07
0 	1.30669e-09 	0.92 	0.04 	0.04 	0.029255 	0 	298.772 	
-0.0292277 	-0.0412273 	0.0119997 	1.82436 	9.45416e-09 	0.940846 	29.1517 	
4.91847e-10 	45724.2 	848.03 	962.628 	0.35 	8.53017 	0.220593 	4.37444e-05 	
0.00379119 	0.000947796 	280358 	1.45137e+12 	0.00111923 	0.00487704 	1.45137e+12 	1.45137e+12 	0 	
8.74889e-05 	3.63994e-09 	0.92 	0.04 	0.04 	0.029255 	-4.70977e-09 	298.218 	
-0.0292277 	-0.0409319 	0.0117042 	3.34545 	2.67907e-08 	3.56162 	26.531 	
9.3117e-10 	91448.4 	1696.06 	1925.26 	0.35 	17.0603 	0.196939 	8.74889e-05 	
0.00758237 	0.00189559 	30848.9 	2.88253e+11 	0.00512212 	0.00433401 	2.88253e+11 	2.88253e+11 	0 	
0.000174978 	5.94318e-09 	0.92 	0.04 	0.04 	0.0292549 	-8.85861e-09 	298.156 	
-0.0292276 	-0.0409083 	0.0116807 	3.3222 	4.40067e-08 	6.89996 	23.1926 	
9.28051e-10 	91448.4 	1696.06 	1925.26 	0.35 	17.0603 	0.194419 	8.74889e-05 	
0.00758237 	0.00189559 	2689.18 	3.33657e+10 	0.0169212 	0.00331904 	3.33657e+10 	3.33657e+10 	0 	
0.000262467 	8.2438e-09 	0.92 	0.04 	0.04 	0.0292549 	-1.24537e-08 	298.15 	
-0.0292275 	-0.0409068 	0.0116793 	3.32077 	6.12154e-08 	10.2149 	19.8776 	
9.2789e-10 	91448.4 	1696.06 	1925.26 	0.35 	17.0603 	0.194198 	8.74889e-05 	
0.00758237 	0.00189559 	195.255 	2.93317e+09 	0.0363142 	0.00244278 	2.93317e+09 	2.93317e+09 	0 	
0.000349956 	1.05442e-08 	0.92 	0.04 	0.04 	0.0292548 	-1.54957e-08 	298.15 	
-0.0292274 	-0.0409067 	0.0116793 	3.32072 	7.84238e-08 	13.5279 	16.5647 	
9.27891e-10 	91448.4 	1696.06 	1925.26 	0.35 	17.0603 	0.194183 	8.74889e-05 	
0.00758237 	0.00189559 	3.5229 	1.64283e+08 	0.0633109 	0.00170153 	1.64283e+08 	1.64283e+08 	0 	
0.000437444 	1.28447e-08 	0.92 	0.04 	0.04 	0.0292546 	-1.79846e-08 	298.15 	
-0.0292273 	-0.0409067 	0.0116794 	3.32076 	9.56324e-08 	16.8407 	13.2518 	
9.27902e-10 	91448.4 	1696.06 	1925.26 	0.35 	17.0603 	0.194184 	8.74889e-05 	
0.00758237 	0.00189559 	-9.89638 	-5.02496e+07 	0.0979139 	0.00109506 	-5.02496e+07 	-5.02496e+07 	0 	
0.000524933 	1.51451e-08 	0.92 	0.04 	0.04 	0.0292544 	-1.99205e-08 	298.15 	
-0.0292271 	-0.0409067 	0.0116796 	3.32081 	1.12841e-07 	20.1536 	9.93898 	
9.27916e-10 	91448.4 	1696.06 	1925.26 	0.35 	17.0603 	0.194187 	8.74889e-05 	
0.00758237 	0.00189559 	-10.7289 	-6.56366e+07 	0.140124 	0.000623355 	-6.56366e+07 	-6.56366e+07 	0 	
0.000612422 	1.74453e-08 	0.92 	0.04 	0.04 	0.0292542 	-2.13032e-08 	298.15 	
-0.0292269 	-0.0409067 	0.0116798 	3.32087 	1.3005e-07 	23.4665 	6.62606 	
9.27932e-10 	91448.4 	1696.06 	1925.26 	0.35 	17.0603 	0.19419 	8.74889e-05 	
0.00758237 	0.00189559 	-10.8574 	-6.64934e+07 	0.189942 	0.000286412 	-6.64934e+07 	-6.64934e+07 	0 	
0.000699911 	1.97457e-08 	0.92 	0.04 	0.04 	0.029254 	-2.21329e-08 	298.15 	
-0.0292267 	-0.0409067 	0.01168 	3.32094 	1.47261e-07 	26.7795 	3.31307 	
9.27951e-10 	91448.4 	1696.06 	1925.26 	0.35 	17.0603 	0.194194 	8.74889e-05 	
0.00758237 	0.00189559 	-9.71441 	-5.54233e+07 	0.247367 	8.42406e-05 	-5.54233e+07 	-5.54233e+07 	0 	
0.0007874 	2.08963e-08 	0.92 	0.04 	0.04 	0.0292537 	-2.24094e-08 	298.15 	
-0.0292264 	-0.0409067 	0.0116803 	1.66051 	1.47261e-07 	29.2643 	0.828279 	
4.63987e-10 	45724.2 	848.03 	962.628 	0.35 	8.53017 	0.1942 	4.37444e-05 	
0.00379119 	0.000947796 	-0.00167104 	-11791.4 	0.277982 	1.68486e-05 	-11791.5 	-11791.5 	0 	
ZONE T = "t = 2.37813e-07 [s]" I = 10 SOLUTIONTIME = 2.3781250000000E-07
0 	1.35837e-09 	0.92 	0.04 	0.04 	0.0292957 	0 	298.98 	
-0.029255 	-0.0413412 	0.0120862 	1.88169 	9.75133e-09 	0.978116 	29.1371 	
7.30599e-10 	45724.2 	848.03 	962.628 	0.35 	8.53017 	0.229331 	4.37444e-05 	
0.00379119 	0.000947796 	374017 	1.23337e+12 	0.00115898 	0.00476445 	1.23337e+12 	1.23337e+12 	0 	