TITLE = "Solution on Domain BulkDomain1D_0"
VARIABLES = "x [m]"  
"Vel_axial" 
"MF_sp(ECDMC)" 
"MF_sp(Li+)" 
"MF_sp(PF6-)" 
"Volt(Electroly)" 
"Volt(AnodeVolt)" 
"Potential Drop Electrode-Electrolyte [V]" 
"Surf_0 Equilibrium Potential Drop Electrode-Electrolyte [V]" 
"Overpotential_0 [V]" 
"Current Source [A/m^2]" 
"Li+ flux [kmol/m^2/s]" 
"Electrolyte Current [A/m^2]" 
"Electrode Current [A/m^2]" 
"CV Capacity discharged [A-s/m^2]" 
"Depth of discharge in CV [A-s/m^2]" 
"CV Capacity remaining [A-s/m^2]" 
"Initial CV capacity [A-s/m^2]" 
"Porosity []" 
"Surface Area [m2/m2] (area per area)" 
"Specific current (per particle area) [A/m^2]" 
"Control volume thickness [m]" 
"MoleDens Li_C6-bulk [kmol/m^3]" 
"MoleDens V_C6-bulk [kmol/m^3]" 
"qHeat_accum [J/m3]" 
"qHeat_step [W/m3]" 
"Joule_Lyte [W/m3]" 
"Joule_Solid [W/m3]" 
"electrodHeat [W/m3]" 
"OverpotHeat [W/m3]" 
"deltaSHeat [W/m3]" 

ZONE T = "ANOD, 0.0000E+00", I = 10, SOLUTIONTIME = 0.000000E+00
ZONETYPE = ORDERED
DATAPACKING = BLOCK
STRANDID = 1
 0.0000000000000E+00  8.7488888888889E-05  1.7497777777778E-04  2.6246666666667E-04  3.4995555555556E-04  4.3744444444444E-04  5.2493333333333E-04  6.1242222222222E-04  6.9991111111111E-04  7.8740000000000E-04 
 0.0000000000000E+00  0.0000000000000E+00  0.0000000000000E+00  0.0000000000000E+00  0.0000000000000E+00  0.0000000000000E+00  0.0000000000000E+00  0.0000000000000E+00  0.0000000000000E+00  0.0000000000000E+00 
 9.2000000000000E-01  9.2000000000000E-01  9.2000000000000E-01  9.2000000000000E-01  9.2000000000000E-01  9.2000000000000E-01  9.2000000000000E-01  9.2000000000000E-01  9.2000000000000E-01  9.2000000000000E-01 
 4.0000000000000E-02  4.0000000000000E-02  4.0000000000000E-02  4.0000000000000E-02  4.0000000000000E-02  4.0000000000000E-02  4.0000000000000E-02  4.0000000000000E-02  4.0000000000000E-02  4.0000000000000E-02 
 4.0000000000000E-02  4.0000000000000E-02  4.0000000000000E-02  4.0000000000000E-02  4.0000000000000E-02  4.0000000000000E-02  4.0000000000000E-02  4.0000000000000E-02  4.0000000000000E-02  4.0000000000000E-02 
-7.0000000000000E-02 -7.0000000000000E-02 -7.0000000000000E-02 -7.0000000000000E-02 -7.0000000000000E-02 -7.0000000000000E-02 -7.0000000000000E-02 -7.0000000000000E-02 -7.0000000000000E-02 -7.0000000000000E-02 
 0.0000000000000E+00  0.0000000000000E+00  0.0000000000000E+00  0.0000000000000E+00  0.0000000000000E+00  0.0000000000000E+00  0.0000000000000E+00  0.0000000000000E+00  0.0000000000000E+00  0.0000000000000E+00 
 7.0000000000000E-02  7.0000000000000E-02  7.0000000000000E-02  7.0000000000000E-02  7.0000000000000E-02  7.0000000000000E-02  7.0000000000000E-02  7.0000000000000E-02  7.0000000000000E-02  7.0000000000000E-02 
-4.0906712753390E-02 -4.0906712753390E-02 -4.0906712753390E-02 -4.0906712753390E-02 -4.0906712753390E-02 -4.0906712753390E-02 -4.0906712753390E-02 -4.0906712753390E-02 -4.0906712753390E-02 -4.0906712753390E-02 
 1.1090671275339E-01  1.1090671275339E-01  1.1090671275339E-01  1.1090671275339E-01  1.1090671275339E-01  1.1090671275339E-01  1.1090671275339E-01  1.1090671275339E-01  1.1090671275339E-01  1.1090671275339E-01 
 3.0930240924008E+01  6.1860481848016E+01  6.1860481848016E+01  6.1860481848016E+01  6.1860481848016E+01  6.1860481848016E+01  6.1860481848016E+01  6.1860481848016E+01  6.1860481848016E+01  3.0930240924008E+01 
-0.0000000000000E+00 -0.0000000000000E+00 -0.0000000000000E+00 -0.0000000000000E+00 -0.0000000000000E+00 -0.0000000000000E+00 -0.0000000000000E+00 -0.0000000000000E+00 -0.0000000000000E+00 -0.0000000000000E+00 
 0.0000000000000E+00  0.0000000000000E+00  0.0000000000000E+00  0.0000000000000E+00  0.0000000000000E+00  0.0000000000000E+00  0.0000000000000E+00  0.0000000000000E+00  0.0000000000000E+00  3.0930240924008E+01 
 3.0930240924008E+01 -0.0000000000000E+00 -0.0000000000000E+00 -0.0000000000000E+00 -0.0000000000000E+00 -0.0000000000000E+00 -0.0000000000000E+00 -0.0000000000000E+00 -0.0000000000000E+00  0.0000000000000E+00 
 0.0000000000000E+00  0.0000000000000E+00  0.0000000000000E+00  0.0000000000000E+00  0.0000000000000E+00  0.0000000000000E+00  0.0000000000000E+00  0.0000000000000E+00  0.0000000000000E+00  0.0000000000000E+00 
 9.1448444543281E+04  1.8289688908656E+05  1.8289688908656E+05  1.8289688908656E+05  1.8289688908656E+05  1.8289688908656E+05  1.8289688908656E+05  1.8289688908656E+05  1.8289688908656E+05  9.1448444543281E+04 
 3.6579377817312E+05  7.3158755634625E+05  7.3158755634625E+05  7.3158755634625E+05  7.3158755634625E+05  7.3158755634625E+05  7.3158755634625E+05  7.3158755634625E+05  7.3158755634625E+05  3.6579377817312E+05 
 4.5724222271640E+05  9.1448444543281E+05  9.1448444543281E+05  9.1448444543281E+05  9.1448444543281E+05  9.1448444543281E+05  9.1448444543281E+05  9.1448444543281E+05  9.1448444543281E+05  4.5724222271640E+05 
 3.5000000000000E-01  3.5000000000000E-01  3.5000000000000E-01  3.5000000000000E-01  3.5000000000000E-01  3.5000000000000E-01  3.5000000000000E-01  3.5000000000000E-01  3.5000000000000E-01  3.5000000000000E-01 
 8.5301666666666E+00  1.7060333333333E+01  1.7060333333333E+01  1.7060333333333E+01  1.7060333333333E+01  1.7060333333333E+01  1.7060333333333E+01  1.7060333333333E+01  1.7060333333333E+01  8.5301666666666E+00 
 3.6259831879809E+00  3.6259831879809E+00  3.6259831879809E+00  3.6259831879809E+00  3.6259831879809E+00  3.6259831879809E+00  3.6259831879809E+00  3.6259831879809E+00  3.6259831879809E+00  3.6259831879809E+00 
 4.3744444444444E-05  8.7488888888889E-05  8.7488888888889E-05  8.7488888888889E-05  8.7488888888889E-05  8.7488888888889E-05  8.7488888888889E-05  8.7488888888889E-05  8.7488888888889E-05  4.3744444444444E-05 
 8.6666666666666E+01  8.6666666666666E+01  8.6666666666666E+01  8.6666666666666E+01  8.6666666666666E+01  8.6666666666666E+01  8.6666666666666E+01  8.6666666666666E+01  8.6666666666666E+01  8.6666666666666E+01 
 2.1666666666667E+01  2.1666666666667E+01  2.1666666666667E+01  2.1666666666667E+01  2.1666666666667E+01  2.1666666666667E+01  2.1666666666667E+01  2.1666666666667E+01  2.1666666666667E+01  2.1666666666667E+01 
 0.0000000000000E+00  0.0000000000000E+00  0.0000000000000E+00  0.0000000000000E+00  0.0000000000000E+00  0.0000000000000E+00  0.0000000000000E+00  0.0000000000000E+00  0.0000000000000E+00  0.0000000000000E+00 
 0.0000000000000E+00  0.0000000000000E+00  0.0000000000000E+00  0.0000000000000E+00  0.0000000000000E+00  0.0000000000000E+00  0.0000000000000E+00  0.0000000000000E+00  0.0000000000000E+00  0.0000000000000E+00 
 0.0000000000000E+00  0.0000000000000E+00  0.0000000000000E+00  0.0000000000000E+00  0.0000000000000E+00  0.0000000000000E+00  0.0000000000000E+00  0.0000000000000E+00  0.0000000000000E+00  0.0000000000000E+00 
 0.0000000000000E+00  0.0000000000000E+00  0.0000000000000E+00  0.0000000000000E+00  0.0000000000000E+00  0.0000000000000E+00  0.0000000000000E+00  0.0000000000000E+00  0.0000000000000E+00  0.0000000000000E+00 
 0.0000000000000E+00  0.0000000000000E+00  0.0000000000000E+00  0.0000000000000E+00  0.0000000000000E+00  0.0000000000000E+00  0.0000000000000E+00  0.0000000000000E+00  0.0000000000000E+00  0.0000000000000E+00 
 0.0000000000000E+00  0.0000000000000E+00  0.0000000000000E+00  0.0000000000000E+00  0.0000000000000E+00  0.0000000000000E+00  0.0000000000000E+00  0.0000000000000E+00  0.0000000000000E+00  0.0000000000000E+00 
 0.0000000000000E+00  0.0000000000000E+00  0.0000000000000E+00  0.0000000000000E+00  0.0000000000000E+00  0.0000000000000E+00  0.0000000000000E+00  0.0000000000000E+00  0.0000000000000E+00  0.0000000000000E+00 
ZONE T = "ANOD, 1.0000E-08", I = 10, SOLUTIONTIME = 1.000000E-08
ZONETYPE = ORDERED
DATAPACKING = BLOCK
STRANDID = 1
 0.0000000000000E+00  8.7488888888889E-05  1.7497777777778E-04  2.6246666666667E-04  3.4995555555556E-04  4.3744444444444E-04  5.2493333333333E-04  6.1242222222222E-04  6.9991111111111E-04  7.8740000000000E-04 
 1.1589917713166E-09  3.4769775213590E-09  5.7949719094993E-09  8.1129813664572E-09  1.0431012322762E-08  1.2749071208760E-08  1.5067164455619E-08  1.7385298493883E-08  1.9703479754966E-08  2.0863142023913E-08 
 9.1999999999930E-01  9.1999999999930E-01  9.1999999999930E-01  9.1999999999930E-01  9.1999999999930E-01  9.1999999999930E-01  9.1999999999930E-01  9.1999999999930E-01  9.1999999999930E-01  9.1999999999971E-01 
 4.0000000000348E-02  4.0000000000348E-02  4.0000000000348E-02  4.0000000000348E-02  4.0000000000348E-02  4.0000000000348E-02  4.0000000000348E-02  4.0000000000348E-02  4.0000000000348E-02  4.0000000000144E-02 
 4.0000000000348E-02  4.0000000000348E-02  4.0000000000348E-02  4.0000000000348E-02  4.0000000000348E-02  4.0000000000348E-02  4.0000000000348E-02  4.0000000000348E-02  4.0000000000348E-02  4.0000000000144E-02 
 2.9167371469853E-02  2.9167355742751E-02  2.9167308561395E-02  2.9167229925686E-02  2.9167119835400E-02  2.9166978290254E-02  2.9166805289879E-02  2.9166600833794E-02  2.9166364921467E-02  2.9166097552227E-02 
 0.0000000000000E+00 -4.7371275801079E-09 -8.9169665837827E-09 -1.2539514934259E-08 -1.5604769008701E-08 -1.8112723638252E-08 -2.0063372108072E-08 -2.1456706157147E-08 -2.2292715978433E-08 -2.2571390218654E-08 
-2.9167371469853E-02 -2.9167360479878E-02 -2.9167317478362E-02 -2.9167242465201E-02 -2.9167135440169E-02 -2.9166996402978E-02 -2.9166825353251E-02 -2.9166622290501E-02 -2.9166387214183E-02 -2.9166120123618E-02 
-4.0906712752893E-02 -4.0906712752892E-02 -4.0906712752893E-02 -4.0906712752893E-02 -4.0906712752887E-02 -4.0906712752893E-02 -4.0906712752893E-02 -4.0906712752887E-02 -4.0906712752887E-02 -4.0906712753018E-02 
 1.1739341283039E-02  1.1739352273014E-02  1.1739395274531E-02  1.1739470287692E-02  1.1739577312717E-02  1.1739716349915E-02  1.1739887399641E-02  1.1740090462386E-02  1.1740325538704E-02  1.1740592629400E-02 
 1.6690490558817E+00  3.3381012909582E+00  3.3381137304953E+00  3.3381354304102E+00  3.3381663907774E+00  3.3382066116931E+00  3.3382560932835E+00  3.3383148357104E+00  3.3383828391555E+00  1.6692300519220E+00 
 8.6491896001658E-09  2.5947595184843E-08  4.3246056073992E-08  6.0544639214932E-08  7.7843378933262E-08  9.5142321197077E-08  1.1244152779921E-07  1.2974102779997E-07  1.4704096743966E-07  1.4704096743966E-07 
 0.0000000000000E+00  3.3380824204008E+00  6.6761727225747E+00  1.0014280156324E+01  1.3352414493001E+01  1.6690583479987E+01  2.0028797514566E+01  2.3367065361995E+01  2.6705396978607E+01  3.0043810569354E+01 
 3.0043810256518E+01  2.6705719148388E+01  2.3367628824117E+01  2.0029521429924E+01  1.6691387705196E+01  1.3353218389590E+01  1.0015004222303E+01  6.6767359423916E+00  3.3384042887345E+00  0.0000000000000E+00 
 1.6690490558817E-08  3.3381012909582E-08  3.3381137304953E-08  3.3381354304102E-08  3.3381663907774E-08  3.3382066116931E-08  3.3382560932835E-08  3.3383148357104E-08  3.3383828391555E-08  1.6692300519220E-08 
 9.1448444543298E+04  1.8289688908659E+05  1.8289688908660E+05  1.8289688908660E+05  1.8289688908660E+05  1.8289688908659E+05  1.8289688908659E+05  1.8289688908660E+05  1.8289688908660E+05  9.1448444543298E+04 
 3.6579377817311E+05  7.3158755634621E+05  7.3158755634621E+05  7.3158755634621E+05  7.3158755634621E+05  7.3158755634621E+05  7.3158755634621E+05  7.3158755634621E+05  7.3158755634621E+05  3.6579377817311E+05 
 4.5724222271640E+05  9.1448444543281E+05  9.1448444543281E+05  9.1448444543281E+05  9.1448444543281E+05  9.1448444543281E+05  9.1448444543281E+05  9.1448444543281E+05  9.1448444543281E+05  4.5724222271640E+05 
 3.5000000000000E-01  3.5000000000000E-01  3.5000000000000E-01  3.5000000000000E-01  3.5000000000000E-01  3.5000000000000E-01  3.5000000000000E-01  3.5000000000000E-01  3.5000000000000E-01  3.5000000000000E-01 
 8.5301666666666E+00  1.7060333333333E+01  1.7060333333333E+01  1.7060333333333E+01  1.7060333333333E+01  1.7060333333333E+01  1.7060333333333E+01  1.7060333333333E+01  1.7060333333333E+01  8.5301666666666E+00 
 1.9566429603350E-01  1.9566448238359E-01  1.9566521153330E-01  1.9566648348470E-01  1.9566829824217E-01  1.9567065581133E-01  1.9567355619958E-01  1.9567699941641E-01  1.9568098547247E-01  1.9568551438097E-01 
 4.3744444444444E-05  8.7488888888889E-05  8.7488888888889E-05  8.7488888888889E-05  8.7488888888889E-05  8.7488888888889E-05  8.7488888888889E-05  8.7488888888889E-05  8.7488888888889E-05  4.3744444444444E-05 
 8.6666666666662E+01  8.6666666666662E+01  8.6666666666662E+01  8.6666666666662E+01  8.6666666666662E+01  8.6666666666662E+01  8.6666666666662E+01  8.6666666666662E+01  8.6666666666662E+01  8.6666666666662E+01 
 2.1666666666671E+01  2.1666666666671E+01  2.1666666666671E+01  2.1666666666671E+01  2.1666666666671E+01  2.1666666666671E+01  2.1666666666671E+01  2.1666666666671E+01  2.1666666666671E+01  2.1666666666671E+01 
 1.8363934917861E-11  2.8663996827831E-11  6.1478019020776E-11  1.1872011476150E-10  2.0039092395644E-10  3.0649131486982E-10  4.3702249910034E-10  5.9198589304389E-10  7.7138326546363E-10  8.6719071099414E-10 
 1.8363934917861E-03  2.8663996827831E-03  6.1478019020776E-03  1.1872011476150E-02  2.0039092395644E-02  3.0649131486982E-02  4.3702249910034E-02  5.9198589304389E-02  7.7138326546363E-02  8.6719071099414E-02 
 3.0002852510768E-04  1.5001453712500E-03  5.1005064171146E-03  1.1101149937061E-02  1.9502139859253E-02  3.0303562475699E-02  4.3505537939948E-02  5.9108206413325E-02  7.7111742821893E-02  8.6713754206855E-02 
 1.5363649666784E-03  1.3662543115331E-03  1.0472954849630E-03  7.7086153908901E-04  5.3695253639086E-04  3.4556901128297E-04  1.9671197008540E-04  9.0382891064073E-05  2.6583724470243E-05  5.3168925590755E-06 
 0.0000000000000E+00  0.0000000000000E+00  0.0000000000000E+00  0.0000000000000E+00  0.0000000000000E+00  0.0000000000000E+00  0.0000000000000E+00  0.0000000000000E+00  0.0000000000000E+00  0.0000000000000E+00 
 0.0000000000000E+00  0.0000000000000E+00  0.0000000000000E+00  0.0000000000000E+00  0.0000000000000E+00  0.0000000000000E+00  0.0000000000000E+00  0.0000000000000E+00  0.0000000000000E+00  0.0000000000000E+00 
 0.0000000000000E+00  0.0000000000000E+00  0.0000000000000E+00  0.0000000000000E+00  0.0000000000000E+00  0.0000000000000E+00  0.0000000000000E+00  0.0000000000000E+00  0.0000000000000E+00  0.0000000000000E+00 
ZONE T = "ANOD, 2.0000E-08", I = 10, SOLUTIONTIME = 2.000000E-08
ZONETYPE = ORDERED
DATAPACKING = BLOCK
STRANDID = 1
 0.0000000000000E+00  8.7488888888889E-05  1.7497777777778E-04  2.6246666666667E-04  3.4995555555556E-04  4.3744444444444E-04  5.2493333333333E-04  6.1242222222222E-04  6.9991111111111E-04  7.8740000000000E-04 
 1.1589975178088E-09  3.4769947610904E-09  5.7950006425038E-09  8.1130215925446E-09  1.0431064041756E-08  1.2749134420752E-08  1.5066512744778E-08  1.7383931860100E-08  1.9701398197660E-08  2.0861066212436E-08 
 9.1999999999861E-01  9.1999999999861E-01  9.1999999999861E-01  9.1999999999861E-01  9.1999999999861E-01  9.1999999999861E-01  9.1999999999861E-01  9.1999999999861E-01  9.1999999999861E-01  9.1999999999942E-01 
 4.0000000000696E-02  4.0000000000696E-02  4.0000000000696E-02  4.0000000000696E-02  4.0000000000696E-02  4.0000000000696E-02  4.0000000000696E-02  4.0000000000696E-02  4.0000000000696E-02  4.0000000000288E-02 
 4.0000000000696E-02  4.0000000000696E-02  4.0000000000696E-02  4.0000000000696E-02  4.0000000000696E-02  4.0000000000696E-02  4.0000000000696E-02  4.0000000000696E-02  4.0000000000696E-02  4.0000000000288E-02 
 2.9167373665566E-02  2.9167357938380E-02  2.9167310756794E-02  2.9167232120689E-02  2.9167122029862E-02  2.9166980484020E-02  2.9166807482785E-02  2.9166603025690E-02  2.9166367112182E-02  2.9166099741620E-02 
 0.0000000000000E+00 -4.7371510662850E-09 -8.9170107929400E-09 -1.2539577103191E-08 -1.5604846374249E-08 -1.8112813437298E-08 -2.0063471577477E-08 -2.1456812533862E-08 -2.2292826499437E-08 -2.2571502121063E-08 
-2.9167373665566E-02 -2.9167362675531E-02 -2.9167319673804E-02 -2.9167244660266E-02 -2.9167137634708E-02 -2.9166998596833E-02 -2.9166827546256E-02 -2.9166624482503E-02 -2.9166389405009E-02 -2.9166122313122E-02 
-4.0906712752394E-02 -4.0906712752395E-02 -4.0906712752394E-02 -4.0906712752394E-02 -4.0906712752395E-02 -4.0906712752394E-02 -4.0906712752394E-02 -4.0906712752394E-02 -4.0906712752394E-02 -4.0906712752657E-02 
 1.1739339086829E-02  1.1739350076864E-02  1.1739393078590E-02  1.1739468092128E-02  1.1739575117687E-02  1.1739714155561E-02  1.1739885206137E-02  1.1740088269892E-02  1.1740323347386E-02  1.1740590439534E-02 
 1.6690487382327E+00  3.3381006556772E+00  3.3381130952751E+00  3.3381347952988E+00  3.3381657558175E+00  3.3382059769311E+00  3.3382554587668E+00  3.3383142014823E+00  3.3383822052669E+00  1.6692297351832E+00 
 8.6492352080660E-09  2.5947722096288E-08  4.3246273451378E-08  6.0544937256324E-08  7.7843761507292E-08  9.5142794179453E-08  1.1244208328079E-07  1.2974167679913E-07  1.4704176694375E-07  1.4704176694375E-07 
 0.0000000000000E+00  3.3380990659879E+00  6.6762059413984E+00  1.0014329886896E+01  1.3352480162409E+01  1.6690666028786E+01  2.0028896746692E+01  2.3367181576791E+01  2.6705529780042E+01  3.0043950617682E+01 
 3.0043950617932E+01  2.6705851551860E+01  2.3367744676384E+01  2.0029620731097E+01  1.6691470455539E+01  1.3353284589165E+01  1.0015053871316E+01  6.6767690411913E+00  3.3384208378167E+00  0.0000000000000E+00 
 3.3380977941144E-08  6.6762019466354E-08  6.6762268257703E-08  6.6762702257090E-08  6.6763321465949E-08  6.6764125886242E-08  6.6765115520502E-08  6.6766290371927E-08  6.6767650444225E-08  3.3384597871052E-08 
 9.1448444543314E+04  1.8289688908663E+05  1.8289688908663E+05  1.8289688908663E+05  1.8289688908663E+05  1.8289688908663E+05  1.8289688908663E+05  1.8289688908663E+05  1.8289688908663E+05  9.1448444543314E+04 
 3.6579377817309E+05  7.3158755634618E+05  7.3158755634618E+05  7.3158755634618E+05  7.3158755634618E+05  7.3158755634618E+05  7.3158755634618E+05  7.3158755634618E+05  7.3158755634618E+05  3.6579377817309E+05 
 4.5724222271640E+05  9.1448444543281E+05  9.1448444543281E+05  9.1448444543281E+05  9.1448444543281E+05  9.1448444543281E+05  9.1448444543281E+05  9.1448444543281E+05  9.1448444543281E+05  4.5724222271640E+05 
 3.5000000000000E-01  3.5000000000000E-01  3.5000000000000E-01  3.5000000000000E-01  3.5000000000000E-01  3.5000000000000E-01  3.5000000000000E-01  3.5000000000000E-01  3.5000000000000E-01  3.5000000000000E-01 
 8.5301666666666E+00  1.7060333333333E+01  1.7060333333333E+01  1.7060333333333E+01  1.7060333333333E+01  1.7060333333333E+01  1.7060333333333E+01  1.7060333333333E+01  1.7060333333333E+01  8.5301666666666E+00 
 1.9566425879518E-01  1.9566444514628E-01  1.9566517429955E-01  1.9566644625733E-01  1.9566826102367E-01  1.9567061860443E-01  1.9567351900706E-01  1.9567696224081E-01  1.9568094831677E-01  1.9568547724936E-01 
 4.3744444444444E-05  8.7488888888889E-05  8.7488888888889E-05  8.7488888888889E-05  8.7488888888889E-05  8.7488888888889E-05  8.7488888888889E-05  8.7488888888889E-05  8.7488888888889E-05  4.3744444444444E-05 
 8.6666666666658E+01  8.6666666666658E+01  8.6666666666658E+01  8.6666666666658E+01  8.6666666666658E+01  8.6666666666658E+01  8.6666666666658E+01  8.6666666666658E+01  8.6666666666658E+01  8.6666666666658E+01 
 2.1666666666674E+01  2.1666666666674E+01  2.1666666666674E+01  2.1666666666674E+01  2.1666666666674E+01  2.1666666666674E+01  2.1666666666674E+01  2.1666666666674E+01  2.1666666666674E+01  2.1666666666674E+01 
 3.6728053820365E-11  5.7328277022899E-11  1.2295665098730E-10  2.3744140670124E-10  4.0078381926164E-10  6.1298566321880E-10  8.7404932753692E-10  1.1839776770803E-09  1.5427742002005E-09  1.7343900017467E-09 
 1.8364118902504E-03  2.8664280195068E-03  6.1478631966520E-03  1.1872129193974E-02  2.0039289530520E-02  3.0649434834898E-02  4.3702682843658E-02  5.9199178403640E-02  7.7139093473689E-02  8.6719929075252E-02 
 6.0006021437211E-04  3.0003055317643E-03  1.0201063744189E-02  2.2202409948459E-02  3.9004471529301E-02  6.0607424872933E-02  8.7011506863128E-02  1.1821700102978E-01  1.5422425230755E-01  1.7342836633684E-01 
 3.0727451676643E-03  2.7325221705255E-03  2.0946013545411E-03  1.5417307216648E-03  1.0739103968628E-03  6.9114144894746E-04  3.9342589056374E-04  1.8076667824990E-04  5.3167712503237E-05  1.0633837830598E-05 
 0.0000000000000E+00  0.0000000000000E+00  0.0000000000000E+00  0.0000000000000E+00  0.0000000000000E+00  0.0000000000000E+00  0.0000000000000E+00  0.0000000000000E+00  0.0000000000000E+00  0.0000000000000E+00 
 0.0000000000000E+00  0.0000000000000E+00  0.0000000000000E+00  0.0000000000000E+00  0.0000000000000E+00  0.0000000000000E+00  0.0000000000000E+00  0.0000000000000E+00  0.0000000000000E+00  0.0000000000000E+00 
 0.0000000000000E+00  0.0000000000000E+00  0.0000000000000E+00  0.0000000000000E+00  0.0000000000000E+00  0.0000000000000E+00  0.0000000000000E+00  0.0000000000000E+00  0.0000000000000E+00  0.0000000000000E+00 
ZONE T = "ANOD, 3.0000E-08", I = 10, SOLUTIONTIME = 3.000000E-08
ZONETYPE = ORDERED
DATAPACKING = BLOCK
STRANDID = 1
 0.0000000000000E+00  8.7488888888889E-05  1.7497777777778E-04  2.6246666666667E-04  3.4995555555556E-04  4.3744444444444E-04  5.2493333333333E-04  6.1242222222222E-04  6.9991111111111E-04  7.8740000000000E-04 
 1.1589975177887E-09  3.4769947610297E-09  5.7950006424027E-09  8.1130215924032E-09  1.0431064041576E-08  1.2749497628259E-08  1.5068328783155E-08  1.7387200729349E-08  1.9706119897781E-08  2.0864698289363E-08 
 9.1999999999791E-01  9.1999999999791E-01  9.1999999999791E-01  9.1999999999791E-01  9.1999999999791E-01  9.1999999999791E-01  9.1999999999791E-01  9.1999999999791E-01  9.1999999999791E-01  9.1999999999914E-01 
 4.0000000001045E-02  4.0000000001045E-02  4.0000000001045E-02  4.0000000001045E-02  4.0000000001045E-02  4.0000000001045E-02  4.0000000001045E-02  4.0000000001045E-02  4.0000000001045E-02  4.0000000000432E-02 
 4.0000000001045E-02  4.0000000001045E-02  4.0000000001045E-02  4.0000000001045E-02  4.0000000001045E-02  4.0000000001045E-02  4.0000000001045E-02  4.0000000001045E-02  4.0000000001045E-02  4.0000000000432E-02 
 2.9167373665352E-02  2.9167357938167E-02  2.9167310756580E-02  2.9167232120475E-02  2.9167122029648E-02  2.9166980483806E-02  2.9166807482571E-02  2.9166603025477E-02  2.9166367111969E-02  2.9166099741407E-02 
 0.0000000000000E+00 -4.7371510662056E-09 -8.9170107927909E-09 -1.2539577102982E-08 -1.5604846373990E-08 -1.8112813436997E-08 -2.0063471577146E-08 -2.1456812533509E-08 -2.2292826499072E-08 -2.2571502120696E-08 
-2.9167373665352E-02 -2.9167362675318E-02 -2.9167319673591E-02 -2.9167244660053E-02 -2.9167137634495E-02 -2.9166998596620E-02 -2.9166827546043E-02 -2.9166624482289E-02 -2.9166389404795E-02 -2.9166122312909E-02 
-4.0906712751895E-02 -4.0906712751897E-02 -4.0906712751895E-02 -4.0906712751895E-02 -4.0906712751895E-02 -4.0906712751895E-02 -4.0906712751892E-02 -4.0906712751892E-02 -4.0906712751892E-02 -4.0906712752285E-02 
 1.1739339086543E-02  1.1739350076579E-02  1.1739393078304E-02  1.1739468091842E-02  1.1739575117401E-02  1.1739714155275E-02  1.1739885205849E-02  1.1740088269603E-02  1.1740323347097E-02  1.1740590439376E-02 
 1.6690487382036E+00  3.3381006556190E+00  3.3381130952169E+00  3.3381347952407E+00  3.3381657557606E+00  3.3382059768731E+00  3.3382554587087E+00  3.3383142014252E+00  3.3383822052099E+00  1.6692297351693E+00 
 8.6492352039783E-09  2.5947722100676E-08  4.3246273449847E-08  6.0544937248864E-08  7.7843761503806E-08  9.5142794182197E-08  1.1244208327570E-07  1.2974167679419E-07  1.4704183906225E-07  1.4704183906225E-07 
 0.0000000000000E+00  3.3380990660169E+00  6.6762059414566E+00  1.0014329886615E+01  1.3352480162157E+01  1.6690666028564E+01  2.0028896746314E+01  2.3367181576258E+01  2.6705529779686E+01  3.0043950617474E+01 
 3.0043950617427E+01  2.6705851551414E+01  2.3367744675996E+01  2.0029620730767E+01  1.6691470455266E+01  1.3353284588950E+01  1.0015053871159E+01  6.6767690410918E+00  3.3384208377743E+00  0.0000000000000E+00 
 5.0071465323180E-08  1.0014302602254E-07  1.0014339920987E-07  1.0014405020950E-07  1.0014497902355E-07  1.0014618565497E-07  1.0014767010759E-07  1.0014943238618E-07  1.0015147249632E-07  5.0076895222746E-08 
 9.1448444543331E+04  1.8289688908666E+05  1.8289688908666E+05  1.8289688908666E+05  1.8289688908666E+05  1.8289688908666E+05  1.8289688908666E+05  1.8289688908666E+05  1.8289688908666E+05  9.1448444543331E+04 
 3.6579377817307E+05  7.3158755634615E+05  7.3158755634615E+05  7.3158755634615E+05  7.3158755634615E+05  7.3158755634615E+05  7.3158755634615E+05  7.3158755634615E+05  7.3158755634615E+05  3.6579377817307E+05 
 4.5724222271640E+05  9.1448444543281E+05  9.1448444543281E+05  9.1448444543281E+05  9.1448444543281E+05  9.1448444543281E+05  9.1448444543281E+05  9.1448444543281E+05  9.1448444543281E+05  4.5724222271640E+05 
 3.5000000000000E-01  3.5000000000000E-01  3.5000000000000E-01  3.5000000000000E-01  3.5000000000000E-01  3.5000000000000E-01  3.5000000000000E-01  3.5000000000000E-01  3.5000000000000E-01  3.5000000000000E-01 
 8.5301666666666E+00  1.7060333333333E+01  1.7060333333333E+01  1.7060333333333E+01  1.7060333333333E+01  1.7060333333333E+01  1.7060333333333E+01  1.7060333333333E+01  1.7060333333333E+01  8.5301666666666E+00 
 1.9566425879177E-01  1.9566444514286E-01  1.9566517429614E-01  1.9566644625393E-01  1.9566826102034E-01  1.9567061860103E-01  1.9567351900365E-01  1.9567696223747E-01  1.9568094831343E-01  1.9568547724773E-01 
 4.3744444444444E-05  8.7488888888889E-05  8.7488888888889E-05  8.7488888888889E-05  8.7488888888889E-05  8.7488888888889E-05  8.7488888888889E-05  8.7488888888889E-05  8.7488888888889E-05  4.3744444444444E-05 
 8.6666666666654E+01  8.6666666666654E+01  8.6666666666654E+01  8.6666666666654E+01  8.6666666666654E+01  8.6666666666654E+01  8.6666666666654E+01  8.6666666666654E+01  8.6666666666654E+01  8.6666666666654E+01 
 2.1666666666678E+01  2.1666666666678E+01  2.1666666666678E+01  2.1666666666678E+01  2.1666666666678E+01  2.1666666666678E+01  2.1666666666678E+01  2.1666666666678E+01  2.1666666666678E+01  2.1666666666678E+01 
 5.5092172721056E-11  8.5992557218964E-11  1.8443528295259E-10  3.5616269863375E-10  6.0117671455778E-10  9.1948001155707E-10  1.3110761559527E-09  1.7759694610847E-09  2.3141651349119E-09  2.6015892924820E-09 
 1.8364118900691E-03  2.8664280196065E-03  6.1478631965292E-03  1.1872129193251E-02  2.0039289529614E-02  3.0649434833827E-02  4.3702682841582E-02  5.9199178400445E-02  7.7139093471138E-02  8.6719929073535E-02 
 9.0009190350678E-04  4.5004656924241E-03  1.5301621071175E-02  3.3303669959160E-02  5.8506803198461E-02  9.0911287269107E-02  1.3051747578424E-01  1.7732579564304E-01  2.3133676179065E-01  2.6014297846510E-01 
 4.6091253685988E-03  4.0987900294723E-03  3.1419072240843E-03  2.3125999042151E-03  1.6108682573171E-03  1.0367138866008E-03  5.9013981103589E-04  2.7115046543300E-04  7.9751700535509E-05  1.5950783102032E-05 
 0.0000000000000E+00  0.0000000000000E+00  0.0000000000000E+00  0.0000000000000E+00  0.0000000000000E+00  0.0000000000000E+00  0.0000000000000E+00  0.0000000000000E+00  0.0000000000000E+00  0.0000000000000E+00 
 0.0000000000000E+00  0.0000000000000E+00  0.0000000000000E+00  0.0000000000000E+00  0.0000000000000E+00  0.0000000000000E+00  0.0000000000000E+00  0.0000000000000E+00  0.0000000000000E+00  0.0000000000000E+00 
 0.0000000000000E+00  0.0000000000000E+00  0.0000000000000E+00  0.0000000000000E+00  0.0000000000000E+00  0.0000000000000E+00  0.0000000000000E+00  0.0000000000000E+00  0.0000000000000E+00  0.0000000000000E+00 
ZONE T = "ANOD, 4.0000E-08", I = 10, SOLUTIONTIME = 4.000000E-08
ZONETYPE = ORDERED
DATAPACKING = BLOCK
STRANDID = 1
 0.0000000000000E+00  8.7488888888889E-05  1.7497777777778E-04  2.6246666666667E-04  3.4995555555556E-04  4.3744444444444E-04  5.2493333333333E-04  6.1242222222222E-04  6.9991111111111E-04  7.8740000000000E-04 
 1.1588159139047E-09  3.4771763648338E-09  5.7948190384388E-09  8.1135664038547E-09  1.0430519229804E-08  1.2747499985536E-08  1.5064515101753E-08  1.7382660632451E-08  1.9700853385388E-08  2.0859976588552E-08 
 9.1999999999721E-01  9.1999999999721E-01  9.1999999999721E-01  9.1999999999721E-01  9.1999999999721E-01  9.1999999999721E-01  9.1999999999721E-01  9.1999999999721E-01  9.1999999999721E-01  9.1999999999885E-01 
 4.0000000001393E-02  4.0000000001393E-02  4.0000000001393E-02  4.0000000001393E-02  4.0000000001393E-02  4.0000000001393E-02  4.0000000001393E-02  4.0000000001393E-02  4.0000000001393E-02  4.0000000000576E-02 
 4.0000000001393E-02  4.0000000001393E-02  4.0000000001393E-02  4.0000000001393E-02  4.0000000001393E-02  4.0000000001393E-02  4.0000000001393E-02  4.0000000001393E-02  4.0000000001393E-02  4.0000000000576E-02 
 2.9167373665139E-02  2.9167357937954E-02  2.9167310756368E-02  2.9167232120263E-02  2.9167122029436E-02  2.9166980483594E-02  2.9166807482359E-02  2.9166603025264E-02  2.9166367111756E-02  2.9166099741194E-02 
 0.0000000000000E+00 -4.7371510661262E-09 -8.9170107926417E-09 -1.2539577102773E-08 -1.5604846373730E-08 -1.8112813436697E-08 -2.0063471576814E-08 -2.1456812533156E-08 -2.2292826498707E-08 -2.2571502120328E-08 
-2.9167373665139E-02 -2.9167362675105E-02 -2.9167319673378E-02 -2.9167244659840E-02 -2.9167137634282E-02 -2.9166998596407E-02 -2.9166827545830E-02 -2.9166624482077E-02 -2.9166389404583E-02 -2.9166122312696E-02 
-4.0906712751392E-02 -4.0906712751394E-02 -4.0906712751392E-02 -4.0906712751392E-02 -4.0906712751394E-02 -4.0906712751392E-02 -4.0906712751391E-02 -4.0906712751392E-02 -4.0906712751392E-02 -4.0906712751917E-02 
 1.1739339086253E-02  1.1739350076289E-02  1.1739393078014E-02  1.1739468091552E-02  1.1739575117112E-02  1.1739714154985E-02  1.1739885205561E-02  1.1740088269316E-02  1.1740323346810E-02  1.1740590439221E-02 
 1.6690487381747E+00  3.3381006555617E+00  3.3381130951590E+00  3.3381347951828E+00  3.3381657557027E+00  3.3382059768151E+00  3.3382554586516E+00  3.3383142013674E+00  3.3383822051521E+00  1.6692297351552E+00 