TITLE = "Solution on Domain BulkDomain1D_2"
VARIABLES = "x [m]"  
"Vel_axial" 	"MF_sp(ECDMC)" 	"MF_sp(Li+)" 	"MF_sp(PF6-)" 	"Volt(Electroly)" 	"Volt(CathodeVo)" 	
"Potential Drop Electrode-Electrolyte [V]" 	"Surf_0 Equilibrium Potential Drop Electrode-Electrolyte [V]" 	"Overpotential_0 [V]" 	"Current Source [A/m^2]" 	"Li+ flux [kmol/m^2/s]" 	"Electrolyte Current [A/m^2]" 	"Electrode Current [A/m^2]" 	
"CV Capacity discharged [A-s/m^2]" 	"Depth of discharge in CV [A-s/m^2]" 	"CV Capacity remaining [A-s/m^2]" 	"Initial CV capacity [A-s/m^2]" 	"Porosity []" 	"Surface Area [m2/m2] (area per area)" 	"Specific current (per particle area) [A/m^2]" 	"Control volume thickness [m]" 	
"MoleDens LiCoO2 [kmol/m^3]" 	"MoleDens CoO2 [kmol/m^3]" 	"qHeat_accum [J/m3]" 	"qHeat_step [W/m3]" 	"Joule_Lyte [W/m3]" 	"Joule_Solid [W/m3]" 	"electrodHeat [W/m3]" 	"OverpotHeat [W/m3]" 	"deltaSHeat [W/m3]" 	

ZONE T = "CATH, 0.0000E+00", I = 10, SOLUTIONTIME = 0.000000E+00
ZONETYPE = ORDERED
DATAPACKING = BLOCK
STRANDID = 3
 1.2700000000000E-03  1.3377333333333E-03  1.4054666666667E-03  1.4732000000000E-03  1.5409333333333E-03  1.6086666666667E-03  1.6764000000000E-03  1.7441333333333E-03  1.8118666666667E-03  1.8796000000000E-03 
 0.0000000000000E+00  0.0000000000000E+00  0.0000000000000E+00  0.0000000000000E+00  0.0000000000000E+00  0.0000000000000E+00  0.0000000000000E+00  0.0000000000000E+00  0.0000000000000E+00  0.0000000000000E+00 
 9.2000000000000E-01  9.2000000000000E-01  9.2000000000000E-01  9.2000000000000E-01  9.2000000000000E-01  9.2000000000000E-01  9.2000000000000E-01  9.2000000000000E-01  9.2000000000000E-01  9.2000000000000E-01 
 4.0000000000000E-02  4.0000000000000E-02  4.0000000000000E-02  4.0000000000000E-02  4.0000000000000E-02  4.0000000000000E-02  4.0000000000000E-02  4.0000000000000E-02  4.0000000000000E-02  4.0000000000000E-02 
 4.0000000000000E-02  4.0000000000000E-02  4.0000000000000E-02  4.0000000000000E-02  4.0000000000000E-02  4.0000000000000E-02  4.0000000000000E-02  4.0000000000000E-02  4.0000000000000E-02  4.0000000000000E-02 
-7.0000000000000E-02 -7.0000000000000E-02 -7.0000000000000E-02 -7.0000000000000E-02 -7.0000000000000E-02 -7.0000000000000E-02 -7.0000000000000E-02 -7.0000000000000E-02 -7.0000000000000E-02 -7.0000000000000E-02 
 3.8000000000000E+00  3.8000000000000E+00  3.8000000000000E+00  3.8000000000000E+00  3.8000000000000E+00  3.8000000000000E+00  3.8000000000000E+00  3.8000000000000E+00  3.8000000000000E+00  3.8000000000000E+00 
 3.8700000000000E+00  3.8700000000000E+00  3.8700000000000E+00  3.8700000000000E+00  3.8700000000000E+00  3.8700000000000E+00  3.8700000000000E+00  3.8700000000000E+00  3.8700000000000E+00  3.8700000000000E+00 
 3.9714142713289E+00  3.9714142713289E+00  3.9714142713289E+00  3.9714142713289E+00  3.9714142713289E+00  3.9714142713289E+00  3.9714142713289E+00  3.9714142713289E+00  3.9714142713289E+00  3.9714142713289E+00 
-1.0141427132889E-01 -1.0141427132889E-01 -1.0141427132889E-01 -1.0141427132889E-01 -1.0141427132889E-01 -1.0141427132889E-01 -1.0141427132889E-01 -1.0141427132889E-01 -1.0141427132889E-01 -1.0141427132889E-01 
-2.3826357195711E-01 -4.7652714391422E-01 -4.7652714391423E-01 -4.7652714391422E-01 -4.7652714391423E-01 -4.7652714391423E-01 -4.7652714391422E-01 -4.7652714391423E-01 -4.7652714391422E-01 -2.3826357195711E-01 
-0.0000000000000E+00 -0.0000000000000E+00 -0.0000000000000E+00 -0.0000000000000E+00 -0.0000000000000E+00 -0.0000000000000E+00 -0.0000000000000E+00 -0.0000000000000E+00 -0.0000000000000E+00 -0.0000000000000E+00 
 2.3826357195711E-01  0.0000000000000E+00  0.0000000000000E+00  0.0000000000000E+00  0.0000000000000E+00  0.0000000000000E+00  0.0000000000000E+00  0.0000000000000E+00  0.0000000000000E+00  0.0000000000000E+00 
 0.0000000000000E+00 -0.0000000000000E+00 -0.0000000000000E+00 -0.0000000000000E+00 -0.0000000000000E+00 -0.0000000000000E+00 -0.0000000000000E+00 -0.0000000000000E+00 -0.0000000000000E+00  2.3826357195711E-01 
-0.0000000000000E+00 -0.0000000000000E+00 -0.0000000000000E+00 -0.0000000000000E+00 -0.0000000000000E+00 -0.0000000000000E+00 -0.0000000000000E+00 -0.0000000000000E+00 -0.0000000000000E+00 -0.0000000000000E+00 
 7.2440786946225E+03  1.4488157389245E+04  1.4488157389245E+04  1.4488157389245E+04  1.4488157389245E+04  1.4488157389245E+04  1.4488157389245E+04  1.4488157389245E+04  1.4488157389245E+04  7.2440786946225E+03 
 4.9259735123433E+04  9.8519470246865E+04  9.8519470246866E+04  9.8519470246865E+04  9.8519470246866E+04  9.8519470246866E+04  9.8519470246865E+04  9.8519470246866E+04  9.8519470246865E+04  4.9259735123433E+04 
 5.6503813818055E+04  1.1300762763611E+05  1.1300762763611E+05  1.1300762763611E+05  1.1300762763611E+05  1.1300762763611E+05  1.1300762763611E+05  1.1300762763611E+05  1.1300762763611E+05  5.6503813818055E+04 
 3.5000000000000E-01  3.5000000000000E-01  3.5000000000000E-01  3.5000000000000E-01  3.5000000000000E-01  3.5000000000000E-01  3.5000000000000E-01  3.5000000000000E-01  3.5000000000000E-01  3.5000000000000E-01 
 6.6040000000000E+00  1.3208000000000E+01  1.3208000000000E+01  1.3208000000000E+01  1.3208000000000E+01  1.3208000000000E+01  1.3208000000000E+01  1.3208000000000E+01  1.3208000000000E+01  6.6040000000000E+00 
-3.6078675341780E-02 -3.6078675341780E-02 -3.6078675341780E-02 -3.6078675341780E-02 -3.6078675341780E-02 -3.6078675341780E-02 -3.6078675341780E-02 -3.6078675341780E-02 -3.6078675341780E-02 -3.6078675341780E-02 
 3.3866666666667E-05  6.7733333333333E-05  6.7733333333334E-05  6.7733333333333E-05  6.7733333333334E-05  6.7733333333334E-05  6.7733333333333E-05  6.7733333333334E-05  6.7733333333333E-05  3.3866666666667E-05 
 2.6603001364256E+01  2.6603001364256E+01  2.6603001364256E+01  2.6603001364256E+01  2.6603001364256E+01  2.6603001364256E+01  2.6603001364256E+01  2.6603001364256E+01  2.6603001364256E+01  2.6603001364256E+01 
 1.7735334242838E+01  1.7735334242838E+01  1.7735334242838E+01  1.7735334242838E+01  1.7735334242838E+01  1.7735334242838E+01  1.7735334242838E+01  1.7735334242838E+01  1.7735334242838E+01  1.7735334242838E+01 
 0.0000000000000E+00  0.0000000000000E+00  0.0000000000000E+00  0.0000000000000E+00  0.0000000000000E+00  0.0000000000000E+00  0.0000000000000E+00  0.0000000000000E+00  0.0000000000000E+00  0.0000000000000E+00 
 0.0000000000000E+00  0.0000000000000E+00  0.0000000000000E+00  0.0000000000000E+00  0.0000000000000E+00  0.0000000000000E+00  0.0000000000000E+00  0.0000000000000E+00  0.0000000000000E+00  0.0000000000000E+00 
 0.0000000000000E+00  0.0000000000000E+00  0.0000000000000E+00  0.0000000000000E+00  0.0000000000000E+00  0.0000000000000E+00  0.0000000000000E+00  0.0000000000000E+00  0.0000000000000E+00  0.0000000000000E+00 
 0.0000000000000E+00  0.0000000000000E+00  0.0000000000000E+00  0.0000000000000E+00  0.0000000000000E+00  0.0000000000000E+00  0.0000000000000E+00  0.0000000000000E+00  0.0000000000000E+00  0.0000000000000E+00 
 0.0000000000000E+00  0.0000000000000E+00  0.0000000000000E+00  0.0000000000000E+00  0.0000000000000E+00  0.0000000000000E+00  0.0000000000000E+00  0.0000000000000E+00  0.0000000000000E+00  0.0000000000000E+00 
 0.0000000000000E+00  0.0000000000000E+00  0.0000000000000E+00  0.0000000000000E+00  0.0000000000000E+00  0.0000000000000E+00  0.0000000000000E+00  0.0000000000000E+00  0.0000000000000E+00  0.0000000000000E+00 
 0.0000000000000E+00  0.0000000000000E+00  0.0000000000000E+00  0.0000000000000E+00  0.0000000000000E+00  0.0000000000000E+00  0.0000000000000E+00  0.0000000000000E+00  0.0000000000000E+00  0.0000000000000E+00 
ZONE T = "CATH, 1.0000E-08", I = 10, SOLUTIONTIME = 1.000000E-08
ZONETYPE = ORDERED
DATAPACKING = BLOCK
STRANDID = 3
 1.2700000000000E-03  1.3377333333333E-03  1.4054666666667E-03  1.4732000000000E-03  1.5409333333333E-03  1.6086666666667E-03  1.6764000000000E-03  1.7441333333333E-03  1.8118666666667E-03  1.8796000000000E-03 
 1.9701029938684E-08  1.7385492780814E-08  1.5069309101794E-08  1.2753372955133E-08  1.0436035778340E-08  8.1178280273405E-09  5.7992798652228E-09  3.4787418473217E-09  1.1567433496466E-09 -5.0849065453047E-12 
 9.2000000000032E-01  9.2000000000090E-01  9.2000000000090E-01  9.2000000000090E-01  9.2000000000090E-01  9.2000000000090E-01  9.2000000000090E-01  9.2000000000090E-01  9.2000000000090E-01  9.2000000000090E-01 
 3.9999999999841E-02  3.9999999999551E-02  3.9999999999551E-02  3.9999999999551E-02  3.9999999999550E-02  3.9999999999550E-02  3.9999999999550E-02  3.9999999999550E-02  3.9999999999550E-02  3.9999999999549E-02 
 3.9999999999841E-02  3.9999999999551E-02  3.9999999999551E-02  3.9999999999551E-02  3.9999999999550E-02  3.9999999999550E-02  3.9999999999550E-02  3.9999999999550E-02  3.9999999999550E-02  3.9999999999549E-02 
 2.9165652654357E-02  2.9165445644491E-02  2.9165262960575E-02  2.9165104605585E-02  2.9164970584553E-02  2.9164860904564E-02  2.9164775574765E-02  2.9164714606365E-02  2.9164678012635E-02  2.9164665808918E-02 
 3.8001746418265E+00  3.8001724869409E+00  3.8001660221208E+00  3.8001552468386E+00  3.8001401602032E+00  3.8001207609588E+00  3.8000970474851E+00  3.8000690177962E+00  3.8000366695407E+00  3.8000000000000E+00 
 3.7710089891721E+00  3.7710070412964E+00  3.7710007591602E+00  3.7709901422331E+00  3.7709751896187E+00  3.7709559000543E+00  3.7709322719103E+00  3.7709043031899E+00  3.7708719915281E+00  3.7708353341911E+00 
 3.9714142713287E+00  3.9714142713285E+00  3.9714142713285E+00  3.9714142713285E+00  3.9714142713285E+00  3.9714142713285E+00  3.9714142713285E+00  3.9714142713285E+00  3.9714142713285E+00  3.9714142713285E+00 
-2.0040528215658E-01 -2.0040723003208E-01 -2.0041351216834E-01 -2.0042412909547E-01 -2.0043908170985E-01 -2.0045837127425E-01 -2.0048199941821E-01 -2.0050996813864E-01 -2.0054227980047E-01 -2.0057893713744E-01 
-1.6672260710529E+00 -3.3345786484038E+00 -3.3349866792645E+00 -3.3356763723174E+00 -3.3366479602551E+00 -3.3379017709994E+00 -3.3394382279376E+00 -3.3412578502265E+00 -3.3433612531651E+00 -1.6728745743192E+00 
 1.4705120434935E-07  1.2977094375890E-07  1.1248870144819E-07  9.5202885391559E-08  7.7912034888391E-08  6.0614687569166E-08  4.3309378856804E-08  2.5994641489823E-08  8.6690050127546E-09  8.6690050127546E-09 
 3.0043770345224E+01  2.6709265305614E+01  2.3374503371808E+01  2.0039192626279E+01  1.6703051316125E+01  1.3365797408610E+01  1.0027148495525E+01  6.6868216978312E+00  3.3445335691159E+00  0.0000000000000E+00 
 0.0000000000000E+00  3.3344946895443E+00  6.6692566234419E+00  1.0004567369022E+01  1.3340708678978E+01  1.6677962586544E+01  2.0016611499637E+01  2.3356938297403E+01  2.6699226426254E+01  3.0043770866773E+01 
 1.6672260710529E-08  3.3345786484038E-08  3.3349866792645E-08  3.3356763723174E-08  3.3366479602551E-08  3.3379017709994E-08  3.3394382279376E-08  3.3412578502265E-08  3.3433612531651E-08  1.6728745743192E-08 
 7.2440786946392E+03  1.4488157389278E+04  1.4488157389278E+04  1.4488157389278E+04  1.4488157389278E+04  1.4488157389278E+04  1.4488157389278E+04  1.4488157389278E+04  1.4488157389278E+04  7.2440786946392E+03 
 4.9259735123416E+04  9.8519470246832E+04  9.8519470246832E+04  9.8519470246832E+04  9.8519470246832E+04  9.8519470246832E+04  9.8519470246832E+04  9.8519470246832E+04  9.8519470246832E+04  4.9259735123416E+04 
 5.6503813818055E+04  1.1300762763611E+05  1.1300762763611E+05  1.1300762763611E+05  1.1300762763611E+05  1.1300762763611E+05  1.1300762763611E+05  1.1300762763611E+05  1.1300762763611E+05  5.6503813818055E+04 
 3.5000000000000E-01  3.5000000000000E-01  3.5000000000000E-01  3.5000000000000E-01  3.5000000000000E-01  3.5000000000000E-01  3.5000000000000E-01  3.5000000000000E-01  3.5000000000000E-01  3.5000000000000E-01 
 6.6040000000000E+00  1.3208000000000E+01  1.3208000000000E+01  1.3208000000000E+01  1.3208000000000E+01  1.3208000000000E+01  1.3208000000000E+01  1.3208000000000E+01  1.3208000000000E+01  6.6040000000000E+00 
-2.5245700651922E-01 -2.5246658452482E-01 -2.5249747723080E-01 -2.5254969505735E-01 -2.5262325562198E-01 -2.5271818375222E-01 -2.5283451150346E-01 -2.5297227818189E-01 -2.5313153037289E-01 -2.5331232197445E-01 
 3.3866666666667E-05  6.7733333333333E-05  6.7733333333334E-05  6.7733333333333E-05  6.7733333333334E-05  6.7733333333334E-05  6.7733333333333E-05  6.7733333333334E-05  6.7733333333333E-05  3.3866666666667E-05 
 2.6603001364262E+01  2.6603001364262E+01  2.6603001364262E+01  2.6603001364262E+01  2.6603001364262E+01  2.6603001364262E+01  2.6603001364262E+01  2.6603001364262E+01  2.6603001364262E+01  2.6603001364262E+01 
 1.7735334242833E+01  1.7735334242833E+01  1.7735334242833E+01  1.7735334242833E+01  1.7735334242833E+01  1.7735334242833E+01  1.7735334242833E+01  1.7735334242833E+01  1.7735334242833E+01  1.7735334242833E+01 
 1.3976698382899E-09  3.4235151881118E-09  9.6096312554077E-09  2.0066003105570E-08  3.4796162822460E-08  5.3805088002185E-08  7.7099205314906E-08  1.0468639512781E-07  1.3657599716551E-07  1.5359766010749E-07 
 1.3976698382899E-01  3.4235151881118E-01  9.6096312554077E-01  2.0066003105570E+00  3.4796162822460E+00  5.3805088002185E+00  7.7099205314906E+00  1.0468639512781E+01  1.3657599716551E+01  1.5359766010749E+01 
 8.6725757247999E-02  7.7133312658916E-02  5.9145052622807E-02  4.3549933241970E-02  3.0348123726999E-02  1.9540602775622E-02  1.1129159962471E-02  5.1163977138201E-03  1.5057338683993E-03  3.0140482869722E-04 
 5.3041226580993E-02  2.6521820615227E-01  9.0181807291797E-01  1.9630503773151E+00  3.4492681585190E+00  5.3609681974429E+00  7.6987913715281E+00  1.0463523115067E+01  1.3656093982682E+01  1.5359464605920E+01 
 0.0000000000000E+00  0.0000000000000E+00  0.0000000000000E+00  0.0000000000000E+00  0.0000000000000E+00  0.0000000000000E+00  0.0000000000000E+00  0.0000000000000E+00  0.0000000000000E+00  0.0000000000000E+00 
 0.0000000000000E+00  0.0000000000000E+00  0.0000000000000E+00  0.0000000000000E+00  0.0000000000000E+00  0.0000000000000E+00  0.0000000000000E+00  0.0000000000000E+00  0.0000000000000E+00  0.0000000000000E+00 
 0.0000000000000E+00  0.0000000000000E+00  0.0000000000000E+00  0.0000000000000E+00  0.0000000000000E+00  0.0000000000000E+00  0.0000000000000E+00  0.0000000000000E+00  0.0000000000000E+00  0.0000000000000E+00 
ZONE T = "CATH, 2.0000E-08", I = 10, SOLUTIONTIME = 2.000000E-08
ZONETYPE = ORDERED
DATAPACKING = BLOCK
STRANDID = 3
 1.2700000000000E-03  1.3377333333333E-03  1.4054666666667E-03  1.4732000000000E-03  1.5409333333333E-03  1.6086666666667E-03  1.6764000000000E-03  1.7441333333333E-03  1.8118666666667E-03  1.8796000000000E-03 
 1.9705513572717E-08  1.7390325162967E-08  1.5074126996892E-08  1.2757449900790E-08  1.0440461331643E-08  8.1226021032593E-09  5.8036759431623E-09  3.4827598029015E-09  1.1607462453836E-09 -1.0896231834243E-12 
 9.2000000000063E-01  9.2000000000180E-01  9.2000000000180E-01  9.2000000000180E-01  9.2000000000180E-01  9.2000000000180E-01  9.2000000000180E-01  9.2000000000180E-01  9.2000000000180E-01  9.2000000000180E-01 
 3.9999999999683E-02  3.9999999999101E-02  3.9999999999101E-02  3.9999999999101E-02  3.9999999999101E-02  3.9999999999100E-02  3.9999999999100E-02  3.9999999999100E-02  3.9999999999099E-02  3.9999999999098E-02 
 3.9999999999683E-02  3.9999999999101E-02  3.9999999999101E-02  3.9999999999101E-02  3.9999999999101E-02  3.9999999999100E-02  3.9999999999100E-02  3.9999999999100E-02  3.9999999999099E-02  3.9999999999098E-02 
 2.9165655455746E-02  2.9165448444566E-02  2.9165265759487E-02  2.9165107403486E-02  2.9164973381596E-02  2.9164863700903E-02  2.9164778370554E-02  2.9164717401758E-02  2.9164680807790E-02  2.9164668603994E-02 
 3.8001746429253E+00  3.8001724880262E+00  3.8001660231657E+00  3.8001552478163E+00  3.8001401610865E+00  3.8001207617205E+00  3.8000970480979E+00  3.8000690182326E+00  3.8000366697729E+00  3.8000000000000E+00 
 3.7710089874695E+00  3.7710070395817E+00  3.7710007574062E+00  3.7709901404128E+00  3.7709751877049E+00  3.7709558980196E+00  3.7709322697273E+00  3.7709043008309E+00  3.7708719889651E+00  3.7708353313960E+00 
 3.9714142713285E+00  3.9714142713282E+00  3.9714142713282E+00  3.9714142713282E+00  3.9714142713282E+00  3.9714142713282E+00  3.9714142713282E+00  3.9714142713282E+00  3.9714142713282E+00  3.9714142713282E+00 
-2.0040528385902E-01 -2.0040723174647E-01 -2.0041351392193E-01 -2.0042413091538E-01 -2.0043908362328E-01 -2.0045837330853E-01 -2.0048200160083E-01 -2.0050997049728E-01 -2.0054228236304E-01 -2.0057893993215E-01 
-1.6672261263313E+00 -3.3345787597286E+00 -3.3349867931491E+00 -3.3356764905340E+00 -3.3366480845836E+00 -3.3379019032312E+00 -3.3394383698784E+00 -3.3412580036994E+00 -3.3433614200146E+00 -1.6728746653668E+00 
 1.4705227082045E-07  1.2977176978905E-07  1.1248941937490E-07  9.5203494876089E-08  7.7912535432008E-08  6.0615078543858E-08  4.3309659471441E-08  2.5994810815728E-08  8.6690619661999E-09  8.6690619661999E-09 
 3.0043950616799E+01  2.6709435110357E+01  2.3374652333759E+01  2.0039320692225E+01  1.6703158404502E+01  1.3365883410509E+01  1.0027213274216E+01  6.6868650870964E+00  3.3445553751544E+00  0.0000000000000E+00 
 0.0000000000000E+00  3.3345155061582E+00  6.6692982826107E+00  1.0004629924517E+01  1.3340792212058E+01  1.6678067205954E+01  2.0016737342469E+01  2.3357085529267E+01  2.6699395241104E+01  3.0043950616476E+01 
 3.3344521973842E-08  6.6691574081325E-08  6.6699734724136E-08  6.6713528628514E-08  6.6732960448387E-08  6.6758036742306E-08  6.6788765978160E-08  6.6825158539258E-08  6.6867226731796E-08  3.3457492396860E-08 
 7.2440786946558E+03  1.4488157389312E+04  1.4488157389312E+04  1.4488157389312E+04  1.4488157389312E+04  1.4488157389312E+04  1.4488157389312E+04  1.4488157389312E+04  1.4488157389312E+04  7.2440786946559E+03 
 4.9259735123400E+04  9.8519470246798E+04  9.8519470246799E+04  9.8519470246798E+04  9.8519470246799E+04  9.8519470246799E+04  9.8519470246798E+04  9.8519470246799E+04  9.8519470246798E+04  4.9259735123399E+04 
 5.6503813818055E+04  1.1300762763611E+05  1.1300762763611E+05  1.1300762763611E+05  1.1300762763611E+05  1.1300762763611E+05  1.1300762763611E+05  1.1300762763611E+05  1.1300762763611E+05  5.6503813818055E+04 
 3.5000000000000E-01  3.5000000000000E-01  3.5000000000000E-01  3.5000000000000E-01  3.5000000000000E-01  3.5000000000000E-01  3.5000000000000E-01  3.5000000000000E-01  3.5000000000000E-01  3.5000000000000E-01 
 6.6040000000000E+00  1.3208000000000E+01  1.3208000000000E+01  1.3208000000000E+01  1.3208000000000E+01  1.3208000000000E+01  1.3208000000000E+01  1.3208000000000E+01  1.3208000000000E+01  6.6040000000000E+00 
-2.5245701488966E-01 -2.5246659295341E-01 -2.5249748585320E-01 -2.5254970400772E-01 -2.5262326503510E-01 -2.5271819376372E-01 -2.5283452225003E-01 -2.5297228980159E-01 -2.5313154300534E-01 -2.5331233576117E-01 
 3.3866666666667E-05  6.7733333333333E-05  6.7733333333334E-05  6.7733333333333E-05  6.7733333333334E-05  6.7733333333334E-05  6.7733333333333E-05  6.7733333333334E-05  6.7733333333333E-05  3.3866666666667E-05 
 2.6603001364267E+01  2.6603001364267E+01  2.6603001364267E+01  2.6603001364267E+01  2.6603001364267E+01  2.6603001364267E+01  2.6603001364267E+01  2.6603001364267E+01  2.6603001364267E+01  2.6603001364267E+01 
 1.7735334242827E+01  1.7735334242827E+01  1.7735334242827E+01  1.7735334242827E+01  1.7735334242827E+01  1.7735334242827E+01  1.7735334242827E+01  1.7735334242827E+01  1.7735334242827E+01  1.7735334242827E+01 
 2.7953573132578E-09  6.8470732989803E-09  1.9219382722101E-08  4.0132257287819E-08  6.9592761532500E-08  1.0761085116485E-07  1.5419938020121E-07  2.0937411020517E-07  2.7315372161256E-07  3.0719726553633E-07 
 1.3976874749679E-01  3.4235581108685E-01  9.6097514666928E-01  2.0066254182249E+00  3.4796598710040E+00  5.3805763162669E+00  7.7100174886303E+00  1.0468771507736E+01  1.3657772444705E+01  1.5359960542885E+01 
 8.6726858823552E-02  7.7134293348619E-02  5.9145806399521E-02  4.3550489810099E-02  3.0348512804957E-02  1.9540854184374E-02  1.1129303709763E-02  5.1164640762564E-03  1.5057534828705E-03  3.0140877907997E-04 
 5.3041888673234E-02  2.6522151773823E-01  9.0182934026976E-01  1.9630749284148E+00  3.4493113581990E+00  5.3610354620825E+00  7.6988881849206E+00  1.0463655043660E+01  1.3656266691222E+01  1.5359659134106E+01 
 0.0000000000000E+00  0.0000000000000E+00  0.0000000000000E+00  0.0000000000000E+00  0.0000000000000E+00  0.0000000000000E+00  0.0000000000000E+00  0.0000000000000E+00  0.0000000000000E+00  0.0000000000000E+00 
 0.0000000000000E+00  0.0000000000000E+00  0.0000000000000E+00  0.0000000000000E+00  0.0000000000000E+00  0.0000000000000E+00  0.0000000000000E+00  0.0000000000000E+00  0.0000000000000E+00  0.0000000000000E+00 
 0.0000000000000E+00  0.0000000000000E+00  0.0000000000000E+00  0.0000000000000E+00  0.0000000000000E+00  0.0000000000000E+00  0.0000000000000E+00  0.0000000000000E+00  0.0000000000000E+00  0.0000000000000E+00 
ZONE T = "CATH, 3.0000E-08", I = 10, SOLUTIONTIME = 3.000000E-08
ZONETYPE = ORDERED
DATAPACKING = BLOCK
STRANDID = 3
 1.2700000000000E-03  1.3377333333333E-03  1.4054666666667E-03  1.4732000000000E-03  1.5409333333333E-03  1.6086666666667E-03  1.6764000000000E-03  1.7441333333333E-03  1.8118666666667E-03  1.8796000000000E-03 
 1.9705150364651E-08  1.7389235539485E-08  1.5073037373449E-08  1.2757086692843E-08  1.0439734916008E-08  8.1218756876641E-09  5.8029495276069E-09  3.4834862182973E-09  1.1621990762749E-09  7.2641545564112E-13 
 9.2000000000095E-01  9.2000000000270E-01  9.2000000000270E-01  9.2000000000270E-01  9.2000000000270E-01  9.2000000000270E-01  9.2000000000270E-01  9.2000000000270E-01  9.2000000000270E-01  9.2000000000270E-01 
 3.9999999999524E-02  3.9999999998652E-02  3.9999999998652E-02  3.9999999998652E-02  3.9999999998651E-02  3.9999999998651E-02  3.9999999998650E-02  3.9999999998649E-02  3.9999999998649E-02  3.9999999998648E-02 
 3.9999999999524E-02  3.9999999998652E-02  3.9999999998652E-02  3.9999999998652E-02  3.9999999998651E-02  3.9999999998651E-02  3.9999999998650E-02  3.9999999998649E-02  3.9999999998649E-02  3.9999999998648E-02 
 2.9165655455535E-02  2.9165448444355E-02  2.9165265759276E-02  2.9165107403275E-02  2.9164973381384E-02  2.9164863700691E-02  2.9164778370343E-02  2.9164717401547E-02  2.9164680807579E-02  2.9164668603783E-02 
 3.8001746429253E+00  3.8001724880262E+00  3.8001660231657E+00  3.8001552478163E+00  3.8001401610865E+00  3.8001207617205E+00  3.8000970480979E+00  3.8000690182326E+00  3.8000366697729E+00  3.8000000000000E+00 
 3.7710089874697E+00  3.7710070395819E+00  3.7710007574064E+00  3.7709901404130E+00  3.7709751877051E+00  3.7709558980198E+00  3.7709322697275E+00  3.7709043008311E+00  3.7708719889653E+00  3.7708353313962E+00 
 3.9714142713283E+00  3.9714142713278E+00  3.9714142713278E+00  3.9714142713278E+00  3.9714142713278E+00  3.9714142713278E+00  3.9714142713278E+00  3.9714142713278E+00  3.9714142713278E+00  3.9714142713278E+00 
-2.0040528385863E-01 -2.0040723174590E-01 -2.0041351392135E-01 -2.0042413091480E-01 -2.0043908362271E-01 -2.0045837330795E-01 -2.0048200160025E-01 -2.0050997049670E-01 -2.0054228236246E-01 -2.0057893993157E-01 
-1.6672261263149E+00 -3.3345787596715E+00 -3.3349867930919E+00 -3.3356764904768E+00 -3.3366480845265E+00 -3.3379019031739E+00 -3.3394383698210E+00 -3.3412580036419E+00 -3.3433614199570E+00 -1.6728746653379E+00 
 1.4705240338534E-07  1.2977176982121E-07  1.1248941941309E-07  9.5203494931949E-08  7.7912535509581E-08  6.0615078636199E-08  4.3309659583918E-08  2.5994810949481E-08  8.6690621102199E-09  8.6690621102199E-09 
 3.0043950615616E+01  2.6709435109871E+01  2.3374652333497E+01  2.0039320691524E+01  1.6703158404314E+01  1.3365883410359E+01  1.0027213273865E+01  6.6868650872589E+00  3.3445553753546E+00  0.0000000000000E+00 
 0.0000000000000E+00  3.3345155061582E+00  6.6692982826107E+00  1.0004629924345E+01  1.3340792211714E+01  1.6678067205611E+01  2.0016737342126E+01  2.3357085528923E+01  2.6699395240760E+01  3.0043950616103E+01 
 5.0016783236991E-08  1.0003736167804E-07  1.0004960265506E-07  1.0007029353328E-07  1.0009944129365E-07  1.0013705577405E-07  1.0018314967637E-07  1.0023773857568E-07  1.0030084093137E-07  5.0186239050239E-08 
 7.2440786946725E+03  1.4488157389345E+04  1.4488157389345E+04  1.4488157389345E+04  1.4488157389345E+04  1.4488157389345E+04  1.4488157389345E+04  1.4488157389345E+04  1.4488157389345E+04  7.2440786946727E+03 
 4.9259735123383E+04  9.8519470246765E+04  9.8519470246766E+04  9.8519470246765E+04  9.8519470246766E+04  9.8519470246766E+04  9.8519470246765E+04  9.8519470246766E+04  9.8519470246765E+04  4.9259735123383E+04 
 5.6503813818055E+04  1.1300762763611E+05  1.1300762763611E+05  1.1300762763611E+05  1.1300762763611E+05  1.1300762763611E+05  1.1300762763611E+05  1.1300762763611E+05  1.1300762763611E+05  5.6503813818055E+04 
 3.5000000000000E-01  3.5000000000000E-01  3.5000000000000E-01  3.5000000000000E-01  3.5000000000000E-01  3.5000000000000E-01  3.5000000000000E-01  3.5000000000000E-01  3.5000000000000E-01  3.5000000000000E-01 
 6.6040000000000E+00  1.3208000000000E+01  1.3208000000000E+01  1.3208000000000E+01  1.3208000000000E+01  1.3208000000000E+01  1.3208000000000E+01  1.3208000000000E+01  1.3208000000000E+01  6.6040000000000E+00 
-2.5245701488717E-01 -2.5246659294908E-01 -2.5249748584887E-01 -2.5254970400340E-01 -2.5262326503077E-01 -2.5271819375938E-01 -2.5283452224568E-01 -2.5297228979724E-01 -2.5313154300099E-01 -2.5331233575680E-01 
 3.3866666666667E-05  6.7733333333333E-05  6.7733333333334E-05  6.7733333333333E-05  6.7733333333334E-05  6.7733333333334E-05  6.7733333333333E-05  6.7733333333334E-05  6.7733333333333E-05  3.3866666666667E-05 
 2.6603001364272E+01  2.6603001364272E+01  2.6603001364272E+01  2.6603001364272E+01  2.6603001364272E+01  2.6603001364272E+01  2.6603001364272E+01  2.6603001364272E+01  2.6603001364272E+01  2.6603001364272E+01 
 1.7735334242822E+01  1.7735334242822E+01  1.7735334242822E+01  1.7735334242822E+01  1.7735334242822E+01  1.7735334242822E+01  1.7735334242822E+01  1.7735334242822E+01  1.7735334242822E+01  1.7735334242822E+01 
 4.1930447881609E-09  1.0270631409825E-08  2.8829134188788E-08  6.0198511469277E-08  1.0438936024079E-07  1.6141661432534E-07  2.3129955508488E-07  3.1406182527947E-07  4.0973144605611E-07  4.6079687096146E-07 
 1.3976874749031E-01  3.4235581108452E-01  9.6097514666878E-01  2.0066254181458E+00  3.4796598708285E+00  5.3805763160482E+00  7.7100174883671E+00  1.0468771507430E+01  1.3657772444355E+01  1.5359960542513E+01 
 8.6726858817079E-02  7.7134293346285E-02  5.9145806399027E-02  4.3550489807557E-02  3.0348512804445E-02  1.9540854184325E-02  1.1129303709038E-02  5.1164640764557E-03  1.5057534831105E-03  3.0140877907657E-04 
 5.3041888673234E-02  2.6522151773823E-01  9.0182934026976E-01  1.9630749283382E+00  3.4493113580241E+00  5.3610354618638E+00  7.6988881846581E+00  1.0463655043353E+01  1.3656266690872E+01  1.5359659133734E+01 
 0.0000000000000E+00  0.0000000000000E+00  0.0000000000000E+00  0.0000000000000E+00  0.0000000000000E+00  0.0000000000000E+00  0.0000000000000E+00  0.0000000000000E+00  0.0000000000000E+00  0.0000000000000E+00 
 0.0000000000000E+00  0.0000000000000E+00  0.0000000000000E+00  0.0000000000000E+00  0.0000000000000E+00  0.0000000000000E+00  0.0000000000000E+00  0.0000000000000E+00  0.0000000000000E+00  0.0000000000000E+00 
 0.0000000000000E+00  0.0000000000000E+00  0.0000000000000E+00  0.0000000000000E+00  0.0000000000000E+00  0.0000000000000E+00  0.0000000000000E+00  0.0000000000000E+00  0.0000000000000E+00  0.0000000000000E+00 
ZONE T = "CATH, 4.0000E-08", I = 10, SOLUTIONTIME = 4.000000E-08
ZONETYPE = ORDERED
DATAPACKING = BLOCK
STRANDID = 3
 1.2700000000000E-03  1.3377333333333E-03  1.4054666666667E-03  1.4732000000000E-03  1.5409333333333E-03  1.6086666666667E-03  1.6764000000000E-03  1.7441333333333E-03  1.8118666666667E-03  1.8796000000000E-03 
 1.9704605552720E-08  1.7389417143050E-08  1.5073945392510E-08  1.2757268296487E-08  1.0440642935147E-08  8.1227837068434E-09  5.8038575468262E-09  3.4833046143731E-09  1.1620174723908E-09  5.4481159169405E-13 
 9.2000000000127E-01  9.2000000000359E-01  9.2000000000359E-01  9.2000000000360E-01  9.2000000000360E-01  9.2000000000360E-01  9.2000000000360E-01  9.2000000000360E-01  9.2000000000360E-01  9.2000000000361E-01 
 3.9999999999365E-02  3.9999999998203E-02  3.9999999998203E-02  3.9999999998202E-02  3.9999999998202E-02  3.9999999998201E-02  3.9999999998200E-02  3.9999999998199E-02  3.9999999998198E-02  3.9999999998197E-02 
 3.9999999999365E-02  3.9999999998203E-02  3.9999999998203E-02  3.9999999998202E-02  3.9999999998202E-02  3.9999999998201E-02  3.9999999998200E-02  3.9999999998199E-02  3.9999999998198E-02  3.9999999998197E-02 
 2.9165655455323E-02  2.9165448444142E-02  2.9165265759064E-02  2.9165107403063E-02  2.9164973381172E-02  2.9164863700479E-02  2.9164778370130E-02  2.9164717401335E-02  2.9164680807367E-02  2.9164668603570E-02 
 3.8001746429252E+00  3.8001724880262E+00  3.8001660231657E+00  3.8001552478163E+00  3.8001401610865E+00  3.8001207617205E+00  3.8000970480979E+00  3.8000690182326E+00  3.8000366697729E+00  3.8000000000000E+00 
 3.7710089874699E+00  3.7710070395821E+00  3.7710007574066E+00  3.7709901404132E+00  3.7709751877053E+00  3.7709558980200E+00  3.7709322697277E+00  3.7709043008313E+00  3.7708719889655E+00  3.7708353313964E+00 
 3.9714142713282E+00  3.9714142713274E+00  3.9714142713274E+00  3.9714142713274E+00  3.9714142713274E+00  3.9714142713274E+00  3.9714142713274E+00  3.9714142713274E+00  3.9714142713274E+00  3.9714142713274E+00 
-2.0040528385824E-01 -2.0040723174532E-01 -2.0041351392078E-01 -2.0042413091422E-01 -2.0043908362213E-01 -2.0045837330737E-01 -2.0048200159967E-01 -2.0050997049612E-01 -2.0054228236188E-01 -2.0057893993099E-01 
-1.6672261262984E+00 -3.3345787596143E+00 -3.3349867930347E+00 -3.3356764904195E+00 -3.3366480844691E+00 -3.3379019031166E+00 -3.3394383697636E+00 -3.3412580035844E+00 -3.3433614198994E+00 -1.6728746653090E+00 