TITLE = "Solution on Domain BulkDomain1D_0"
VARIABLES = "x [m]"  
"Vel_axial" 
"MF_sp(ECDMC)" 
"MF_sp(Li+)" 
"MF_sp(PF6-)" 
"Volt(Electroly)" 
"Volt(AnodeVolt)" 
"Potential Drop Electrode-Electrolyte [V]" 
"Surf_0 Equilibrium Potential Drop Electrode-Electrolyte [V]" 
"Overpotential_0 [V]" 
"Current Source [A/m^2]" 
"Li+ flux [kmol/m^2/s]" 
"Electrolyte Current [A/m^2]" 
"Electrode Current [A/m^2]" 
"CV Capacity discharged [A-s/m^2]" 
"Depth of discharge in CV [A-s/m^2]" 
"CV Capacity remaining [A-s/m^2]" 
"Initial CV capacity [A-s/m^2]" 
"Porosity []" 
"Surface Area [m2/m2] (area per area)" 
"Specific current (per particle area) [A/m^2]" 
"Control volume thickness [m]" 
"MoleDens Li_C6-bulk [kmol/m^3]" 
"MoleDens V_C6-bulk [kmol/m^3]" 
"qHeat_accum [J/m3]" 
"qHeat_step [W/m3]" 
"Joule_Lyte [W/m3]" 
"Joule_Solid [W/m3]" 
"electrodHeat [W/m3]" 
"OverpotHeat [W/m3]" 
"deltaSHeat [W/m3]" 

ZONE T = "ANOD, 0.0000E+00", I = 10, SOLUTIONTIME = 0.000000E+00
ZONETYPE = ORDERED
DATAPACKING = BLOCK
STRANDID = 1
 0.0000000000000E+00  8.7488888888889E-05  1.7497777777778E-04  2.6246666666667E-04  3.4995555555556E-04  4.3744444444444E-04  5.2493333333333E-04  6.1242222222222E-04  6.9991111111111E-04  7.8740000000000E-04 
 0.0000000000000E+00  0.0000000000000E+00  0.0000000000000E+00  0.0000000000000E+00  0.0000000000000E+00  0.0000000000000E+00  0.0000000000000E+00  0.0000000000000E+00  0.0000000000000E+00  0.0000000000000E+00 
 9.2000000000000E-01  9.2000000000000E-01  9.2000000000000E-01  9.2000000000000E-01  9.2000000000000E-01  9.2000000000000E-01  9.2000000000000E-01  9.2000000000000E-01  9.2000000000000E-01  9.2000000000000E-01 
 4.0000000000000E-02  4.0000000000000E-02  4.0000000000000E-02  4.0000000000000E-02  4.0000000000000E-02  4.0000000000000E-02  4.0000000000000E-02  4.0000000000000E-02  4.0000000000000E-02  4.0000000000000E-02 
 4.0000000000000E-02  4.0000000000000E-02  4.0000000000000E-02  4.0000000000000E-02  4.0000000000000E-02  4.0000000000000E-02  4.0000000000000E-02  4.0000000000000E-02  4.0000000000000E-02  4.0000000000000E-02 
-7.0000000000000E-02 -7.0000000000000E-02 -7.0000000000000E-02 -7.0000000000000E-02 -7.0000000000000E-02 -7.0000000000000E-02 -7.0000000000000E-02 -7.0000000000000E-02 -7.0000000000000E-02 -7.0000000000000E-02 
 0.0000000000000E+00  0.0000000000000E+00  0.0000000000000E+00  0.0000000000000E+00  0.0000000000000E+00  0.0000000000000E+00  0.0000000000000E+00  0.0000000000000E+00  0.0000000000000E+00  0.0000000000000E+00 
 7.0000000000000E-02  7.0000000000000E-02  7.0000000000000E-02  7.0000000000000E-02  7.0000000000000E-02  7.0000000000000E-02  7.0000000000000E-02  7.0000000000000E-02  7.0000000000000E-02  7.0000000000000E-02 
-4.0906712753392E-02 -4.0906712753392E-02 -4.0906712753392E-02 -4.0906712753392E-02 -4.0906712753392E-02 -4.0906712753392E-02 -4.0906712753392E-02 -4.0906712753392E-02 -4.0906712753392E-02 -4.0906712753392E-02 
 1.1090671275339E-01  1.1090671275339E-01  1.1090671275339E-01  1.1090671275339E-01  1.1090671275339E-01  1.1090671275339E-01  1.1090671275339E-01  1.1090671275339E-01  1.1090671275339E-01  1.1090671275339E-01 
 3.0930240924008E+01  6.1860481848016E+01  6.1860481848016E+01  6.1860481848016E+01  6.1860481848016E+01  6.1860481848016E+01  6.1860481848016E+01  6.1860481848016E+01  6.1860481848016E+01  3.0930240924008E+01 
-0.0000000000000E+00 -0.0000000000000E+00 -0.0000000000000E+00 -0.0000000000000E+00 -0.0000000000000E+00 -0.0000000000000E+00 -0.0000000000000E+00 -0.0000000000000E+00 -0.0000000000000E+00 -0.0000000000000E+00 
 0.0000000000000E+00  0.0000000000000E+00  0.0000000000000E+00  0.0000000000000E+00  0.0000000000000E+00  0.0000000000000E+00  0.0000000000000E+00  0.0000000000000E+00  0.0000000000000E+00  3.0930240924008E+01 
 3.0930240924008E+01 -0.0000000000000E+00 -0.0000000000000E+00 -0.0000000000000E+00 -0.0000000000000E+00 -0.0000000000000E+00 -0.0000000000000E+00 -0.0000000000000E+00 -0.0000000000000E+00  0.0000000000000E+00 
 0.0000000000000E+00  0.0000000000000E+00  0.0000000000000E+00  0.0000000000000E+00  0.0000000000000E+00  0.0000000000000E+00  0.0000000000000E+00  0.0000000000000E+00  0.0000000000000E+00  0.0000000000000E+00 
 9.1448444543281E+04  1.8289688908656E+05  1.8289688908656E+05  1.8289688908656E+05  1.8289688908656E+05  1.8289688908656E+05  1.8289688908656E+05  1.8289688908656E+05  1.8289688908656E+05  9.1448444543281E+04 
 3.6579377817312E+05  7.3158755634625E+05  7.3158755634625E+05  7.3158755634625E+05  7.3158755634625E+05  7.3158755634625E+05  7.3158755634625E+05  7.3158755634625E+05  7.3158755634625E+05  3.6579377817312E+05 
 4.5724222271640E+05  9.1448444543281E+05  9.1448444543281E+05  9.1448444543281E+05  9.1448444543281E+05  9.1448444543281E+05  9.1448444543281E+05  9.1448444543281E+05  9.1448444543281E+05  4.5724222271640E+05 
 3.5000000000000E-01  3.5000000000000E-01  3.5000000000000E-01  3.5000000000000E-01  3.5000000000000E-01  3.5000000000000E-01  3.5000000000000E-01  3.5000000000000E-01  3.5000000000000E-01  3.5000000000000E-01 
 8.5301666666666E+00  1.7060333333333E+01  1.7060333333333E+01  1.7060333333333E+01  1.7060333333333E+01  1.7060333333333E+01  1.7060333333333E+01  1.7060333333333E+01  1.7060333333333E+01  8.5301666666666E+00 
 3.6259831879809E+00  3.6259831879809E+00  3.6259831879809E+00  3.6259831879809E+00  3.6259831879809E+00  3.6259831879809E+00  3.6259831879809E+00  3.6259831879809E+00  3.6259831879809E+00  3.6259831879809E+00 
 4.3744444444444E-05  8.7488888888889E-05  8.7488888888889E-05  8.7488888888889E-05  8.7488888888889E-05  8.7488888888889E-05  8.7488888888889E-05  8.7488888888889E-05  8.7488888888889E-05  4.3744444444444E-05 
 8.6666666666666E+01  8.6666666666666E+01  8.6666666666666E+01  8.6666666666666E+01  8.6666666666666E+01  8.6666666666666E+01  8.6666666666666E+01  8.6666666666666E+01  8.6666666666666E+01  8.6666666666666E+01 
 2.1666666666667E+01  2.1666666666667E+01  2.1666666666667E+01  2.1666666666667E+01  2.1666666666667E+01  2.1666666666667E+01  2.1666666666667E+01  2.1666666666667E+01  2.1666666666667E+01  2.1666666666667E+01 
 0.0000000000000E+00  0.0000000000000E+00  0.0000000000000E+00  0.0000000000000E+00  0.0000000000000E+00  0.0000000000000E+00  0.0000000000000E+00  0.0000000000000E+00  0.0000000000000E+00  0.0000000000000E+00 
 0.0000000000000E+00  0.0000000000000E+00  0.0000000000000E+00  0.0000000000000E+00  0.0000000000000E+00  0.0000000000000E+00  0.0000000000000E+00  0.0000000000000E+00  0.0000000000000E+00  0.0000000000000E+00 
 0.0000000000000E+00  0.0000000000000E+00  0.0000000000000E+00  0.0000000000000E+00  0.0000000000000E+00  0.0000000000000E+00  0.0000000000000E+00  0.0000000000000E+00  0.0000000000000E+00  0.0000000000000E+00 
 0.0000000000000E+00  0.0000000000000E+00  0.0000000000000E+00  0.0000000000000E+00  0.0000000000000E+00  0.0000000000000E+00  0.0000000000000E+00  0.0000000000000E+00  0.0000000000000E+00  0.0000000000000E+00 
 0.0000000000000E+00  0.0000000000000E+00  0.0000000000000E+00  0.0000000000000E+00  0.0000000000000E+00  0.0000000000000E+00  0.0000000000000E+00  0.0000000000000E+00  0.0000000000000E+00  0.0000000000000E+00 
 0.0000000000000E+00  0.0000000000000E+00  0.0000000000000E+00  0.0000000000000E+00  0.0000000000000E+00  0.0000000000000E+00  0.0000000000000E+00  0.0000000000000E+00  0.0000000000000E+00  0.0000000000000E+00 
 0.0000000000000E+00  0.0000000000000E+00  0.0000000000000E+00  0.0000000000000E+00  0.0000000000000E+00  0.0000000000000E+00  0.0000000000000E+00  0.0000000000000E+00  0.0000000000000E+00  0.0000000000000E+00 
ZONE T = "ANOD, 1.0000E-08", I = 10, SOLUTIONTIME = 1.000000E-08
ZONETYPE = ORDERED
DATAPACKING = BLOCK
STRANDID = 1
 0.0000000000000E+00  8.7488888888889E-05  1.7497777777778E-04  2.6246666666667E-04  3.4995555555556E-04  4.3744444444444E-04  5.2493333333333E-04  6.1242222222222E-04  6.9991111111111E-04  7.8740000000000E-04 
 1.1589901638156E-09  3.4762462835795E-09  5.7938742490881E-09  8.1115172835997E-09  1.0428818608842E-08  1.2746511072776E-08  1.5064237897266E-08  1.7381642305908E-08  1.9699093936897E-08  2.0858754598297E-08 
 9.1999999999930E-01  9.1999999999930E-01  9.1999999999930E-01  9.1999999999930E-01  9.1999999999930E-01  9.1999999999930E-01  9.1999999999930E-01  9.1999999999930E-01  9.1999999999930E-01  9.1999999999971E-01 
 4.0000000000348E-02  4.0000000000348E-02  4.0000000000348E-02  4.0000000000348E-02  4.0000000000348E-02  4.0000000000348E-02  4.0000000000348E-02  4.0000000000348E-02  4.0000000000348E-02  4.0000000000144E-02 
 4.0000000000348E-02  4.0000000000348E-02  4.0000000000348E-02  4.0000000000348E-02  4.0000000000348E-02  4.0000000000348E-02  4.0000000000348E-02  4.0000000000348E-02  4.0000000000348E-02  4.0000000000144E-02 
 2.9167370853816E-02  2.9167355126730E-02  2.9167307945443E-02  2.9167229309837E-02  2.9167119219709E-02  2.9166977674765E-02  2.9166804674628E-02  2.9166600218830E-02  2.9166364306819E-02  2.9166096937954E-02 
 0.0000000000000E+00 -4.7371210101493E-09 -8.9169542168388E-09 -1.2539497543288E-08 -1.5604747366618E-08 -1.8112698518218E-08 -2.0063344282911E-08 -2.1456676399753E-08 -2.2292685061623E-08 -2.2571358915356E-08 
-2.9167370853816E-02 -2.9167359863851E-02 -2.9167316862397E-02 -2.9167241849335E-02 -2.9167134824456E-02 -2.9166995787464E-02 -2.9166824737972E-02 -2.9166621675507E-02 -2.9166386599504E-02 -2.9166119509313E-02 
-4.0906712752892E-02 -4.0906712752896E-02 -4.0906712752892E-02 -4.0906712752892E-02 -4.0906712752892E-02 -4.0906712752896E-02 -4.0906712752896E-02 -4.0906712752892E-02 -4.0906712752892E-02 -4.0906712753023E-02 
 1.1739341899076E-02  1.1739352889045E-02  1.1739395890494E-02  1.1739470903557E-02  1.1739577928436E-02  1.1739716965433E-02  1.1739888014924E-02  1.1740091077385E-02  1.1740326153387E-02  1.1740593243710E-02 
 1.6690491449858E+00  3.3381014691632E+00  3.3381139086823E+00  3.3381356085688E+00  3.3381665688917E+00  3.3382067897498E+00  3.3382562712722E+00  3.3383150136171E+00  3.3383830169711E+00  1.6692301407760E+00 
 8.6491803248476E-09  2.5947557451489E-08  4.3245999042398E-08  6.0544553089927E-08  7.7843267566479E-08  9.5142190489549E-08  1.1244136983434E-07  1.2974085359422E-07  1.4704076187531E-07  1.4704076187531E-07 
 0.0000000000000E+00  3.3380778849709E+00  6.6761635793645E+00  1.0014266344029E+01  1.3352395438157E+01  1.6690560123517E+01  2.0028769661695E+01  2.3367033312249E+01  2.6705360336361E+01  3.0043770990318E+01 
 3.0043770992448E+01  2.6705682110217E+01  2.3367596415909E+01  2.0029493651501E+01  1.6691364557169E+01  1.3353199871684E+01  1.0014990333719E+01  6.6767266831099E+00  3.3383996588545E+00  0.0000000000000E+00 
 1.6690491449858E-08  3.3381014691632E-08  3.3381139086823E-08  3.3381356085688E-08  3.3381665688917E-08  3.3382067897498E-08  3.3382562712722E-08  3.3383150136171E-08  3.3383830169711E-08  1.6692301407760E-08 
 9.1448444543298E+04  1.8289688908659E+05  1.8289688908660E+05  1.8289688908660E+05  1.8289688908660E+05  1.8289688908660E+05  1.8289688908660E+05  1.8289688908660E+05  1.8289688908660E+05  9.1448444543298E+04 
 3.6579377817311E+05  7.3158755634621E+05  7.3158755634621E+05  7.3158755634621E+05  7.3158755634621E+05  7.3158755634621E+05  7.3158755634621E+05  7.3158755634621E+05  7.3158755634621E+05  3.6579377817311E+05 
 4.5724222271640E+05  9.1448444543281E+05  9.1448444543281E+05  9.1448444543281E+05  9.1448444543281E+05  9.1448444543281E+05  9.1448444543281E+05  9.1448444543281E+05  9.1448444543281E+05  4.5724222271640E+05 
 3.5000000000000E-01  3.5000000000000E-01  3.5000000000000E-01  3.5000000000000E-01  3.5000000000000E-01  3.5000000000000E-01  3.5000000000000E-01  3.5000000000000E-01  3.5000000000000E-01  3.5000000000000E-01 
 8.5301666666666E+00  1.7060333333333E+01  1.7060333333333E+01  1.7060333333333E+01  1.7060333333333E+01  1.7060333333333E+01  1.7060333333333E+01  1.7060333333333E+01  1.7060333333333E+01  8.5301666666666E+00 
 1.9566430647925E-01  1.9566449282916E-01  1.9566522197782E-01  1.9566649392756E-01  1.9566830868243E-01  1.9567066624821E-01  1.9567356663247E-01  1.9567700984450E-01  1.9568099589522E-01  1.9568552479741E-01 
 4.3744444444444E-05  8.7488888888889E-05  8.7488888888889E-05  8.7488888888889E-05  8.7488888888889E-05  8.7488888888889E-05  8.7488888888889E-05  8.7488888888889E-05  8.7488888888889E-05  4.3744444444444E-05 
 8.6666666666662E+01  8.6666666666662E+01  8.6666666666662E+01  8.6666666666662E+01  8.6666666666662E+01  8.6666666666662E+01  8.6666666666662E+01  8.6666666666662E+01  8.6666666666662E+01  8.6666666666662E+01 
 2.1666666666671E+01  2.1666666666671E+01  2.1666666666671E+01  2.1666666666671E+01  2.1666666666671E+01  2.1666666666671E+01  2.1666666666671E+01  2.1666666666671E+01  2.1666666666671E+01  2.1666666666671E+01 
 1.8363885868570E-11  2.8663916446417E-11  6.1477851790003E-11  1.1871978533608E-10  2.0039035225300E-10  3.0649045884922E-10  4.3702128252287E-10  5.9198427170597E-10  7.7138114599649E-10  8.6718828631791E-10 
 1.8363885868570E-03  2.8663916446417E-03  6.1477851790003E-03  1.1871978533608E-02  2.0039035225300E-02  3.0649045884922E-02  4.3702128252287E-02  5.9198427170597E-02  7.7138114599649E-02  8.6718828631791E-02 
 3.0002788176834E-04  1.5001411228244E-03  5.1004925989928E-03  1.1101119132694E-02  1.9502084178231E-02  3.0303477832090E-02  4.3505416827793E-02  5.9108044530217E-02  7.7111530948914E-02  8.6713511753980E-02 
 1.5363607050887E-03  1.3662505218173E-03  1.0472925800075E-03  7.7085940091451E-04  5.3695104706846E-04  3.4556805283152E-04  1.9671142449380E-04  9.0382640380218E-05  2.6583650735067E-05  5.3168778113013E-06 
 0.0000000000000E+00  0.0000000000000E+00  0.0000000000000E+00  0.0000000000000E+00  0.0000000000000E+00  0.0000000000000E+00  0.0000000000000E+00  0.0000000000000E+00  0.0000000000000E+00  0.0000000000000E+00 
 0.0000000000000E+00  0.0000000000000E+00  0.0000000000000E+00  0.0000000000000E+00  0.0000000000000E+00  0.0000000000000E+00  0.0000000000000E+00  0.0000000000000E+00  0.0000000000000E+00  0.0000000000000E+00 
 0.0000000000000E+00  0.0000000000000E+00  0.0000000000000E+00  0.0000000000000E+00  0.0000000000000E+00  0.0000000000000E+00  0.0000000000000E+00  0.0000000000000E+00  0.0000000000000E+00  0.0000000000000E+00 
ZONE T = "ANOD, 2.0000E-08", I = 10, SOLUTIONTIME = 2.000000E-08
ZONETYPE = ORDERED
DATAPACKING = BLOCK
STRANDID = 1
 0.0000000000000E+00  8.7488888888889E-05  1.7497777777778E-04  2.6246666666667E-04  3.4995555555556E-04  4.3744444444444E-04  5.2493333333333E-04  6.1242222222222E-04  6.9991111111111E-04  7.8740000000000E-04 
 1.1589975177541E-09  3.4769947609261E-09  5.7950006422300E-09  8.1130215921614E-09  1.0431064041264E-08  1.2749134420151E-08  1.5067239159523E-08  1.7385384690192E-08  1.9703577443099E-08  2.0863245457820E-08 
 9.1999999999861E-01  9.1999999999861E-01  9.1999999999861E-01  9.1999999999861E-01  9.1999999999861E-01  9.1999999999861E-01  9.1999999999861E-01  9.1999999999861E-01  9.1999999999861E-01  9.1999999999942E-01 
 4.0000000000696E-02  4.0000000000696E-02  4.0000000000696E-02  4.0000000000696E-02  4.0000000000696E-02  4.0000000000696E-02  4.0000000000696E-02  4.0000000000696E-02  4.0000000000696E-02  4.0000000000288E-02 
 4.0000000000696E-02  4.0000000000696E-02  4.0000000000696E-02  4.0000000000696E-02  4.0000000000696E-02  4.0000000000696E-02  4.0000000000696E-02  4.0000000000696E-02  4.0000000000696E-02  4.0000000000288E-02 
 2.9167373666107E-02  2.9167357938921E-02  2.9167310757335E-02  2.9167232121230E-02  2.9167122030403E-02  2.9166980484561E-02  2.9166807483326E-02  2.9166603026231E-02  2.9166367112724E-02  2.9166099742162E-02 
 0.0000000000000E+00 -4.7371510660620E-09 -8.9170107925203E-09 -1.2539577102601E-08 -1.5604846373515E-08 -1.8112813436446E-08 -2.0063471576533E-08 -2.1456812532853E-08 -2.2292826498389E-08 -2.2571502120001E-08 
-2.9167373666107E-02 -2.9167362676073E-02 -2.9167319674346E-02 -2.9167244660807E-02 -2.9167137635249E-02 -2.9166998597375E-02 -2.9166827546798E-02 -2.9166624483044E-02 -2.9166389405550E-02 -2.9166122313664E-02 
-4.0906712752388E-02 -4.0906712752390E-02 -4.0906712752388E-02 -4.0906712752388E-02 -4.0906712752391E-02 -4.0906712752390E-02 -4.0906712752390E-02 -4.0906712752390E-02 -4.0906712752390E-02 -4.0906712752653E-02 
 1.1739339086281E-02  1.1739350076318E-02  1.1739393078043E-02  1.1739468091581E-02  1.1739575117142E-02  1.1739714155016E-02  1.1739885205593E-02  1.1740088269346E-02  1.1740323346840E-02  1.1740590438989E-02 
 1.6690487381539E+00  3.3381006555194E+00  3.3381130951174E+00  3.3381347951412E+00  3.3381657556605E+00  3.3382059767741E+00  3.3382554586094E+00  3.3383142013258E+00  3.3383822051103E+00  1.6692297351049E+00 
 8.6492352016479E-09  2.5947722098543E-08  4.3246273447215E-08  6.0544937250253E-08  7.7843761499305E-08  9.5142794177553E-08  1.1244208327507E-07  1.2974167679341E-07  1.4704176694028E-07  1.4704176694028E-07 
 0.0000000000000E+00  3.3380990658038E+00  6.6762059412144E+00  1.0014329886344E+01  1.3352480161857E+01  1.6690666028050E+01  2.0028896745587E+01  2.3367181575686E+01  2.6705529778938E+01  3.0043950616499E+01 
 3.0043950616517E+01  2.6705851550603E+01  2.3367744675285E+01  2.0029620730156E+01  1.6691470454755E+01  1.3353284588538E+01  1.0015053870846E+01  6.6767690408782E+00  3.3384208376602E+00  0.0000000000000E+00 
 3.3380978831396E-08  6.6762021246826E-08  6.6762270037997E-08  6.6762704037100E-08  6.6763323245522E-08  6.6764127665239E-08  6.6765117298817E-08  6.6766292149429E-08  6.6767652220814E-08  3.3384598758809E-08 
 9.1448444543314E+04  1.8289688908663E+05  1.8289688908663E+05  1.8289688908663E+05  1.8289688908663E+05  1.8289688908663E+05  1.8289688908663E+05  1.8289688908663E+05  1.8289688908663E+05  9.1448444543314E+04 
 3.6579377817309E+05  7.3158755634618E+05  7.3158755634618E+05  7.3158755634618E+05  7.3158755634618E+05  7.3158755634618E+05  7.3158755634618E+05  7.3158755634618E+05  7.3158755634618E+05  3.6579377817309E+05 
 4.5724222271640E+05  9.1448444543281E+05  9.1448444543281E+05  9.1448444543281E+05  9.1448444543281E+05  9.1448444543281E+05  9.1448444543281E+05  9.1448444543281E+05  9.1448444543281E+05  4.5724222271640E+05 
 3.5000000000000E-01  3.5000000000000E-01  3.5000000000000E-01  3.5000000000000E-01  3.5000000000000E-01  3.5000000000000E-01  3.5000000000000E-01  3.5000000000000E-01  3.5000000000000E-01  3.5000000000000E-01 
 8.5301666666666E+00  1.7060333333333E+01  1.7060333333333E+01  1.7060333333333E+01  1.7060333333333E+01  1.7060333333333E+01  1.7060333333333E+01  1.7060333333333E+01  1.7060333333333E+01  8.5301666666666E+00 
 1.9566425878594E-01  1.9566444513703E-01  1.9566517429031E-01  1.9566644624809E-01  1.9566826101447E-01  1.9567061859523E-01  1.9567351899784E-01  1.9567696223164E-01  1.9568094830759E-01  1.9568547724018E-01 
 4.3744444444444E-05  8.7488888888889E-05  8.7488888888889E-05  8.7488888888889E-05  8.7488888888889E-05  8.7488888888889E-05  8.7488888888889E-05  8.7488888888889E-05  8.7488888888889E-05  4.3744444444444E-05 
 8.6666666666658E+01  8.6666666666658E+01  8.6666666666658E+01  8.6666666666658E+01  8.6666666666658E+01  8.6666666666658E+01  8.6666666666658E+01  8.6666666666658E+01  8.6666666666658E+01  8.6666666666658E+01 
 2.1666666666674E+01  2.1666666666674E+01  2.1666666666674E+01  2.1666666666674E+01  2.1666666666674E+01  2.1666666666674E+01  2.1666666666674E+01  2.1666666666674E+01  2.1666666666674E+01  2.1666666666674E+01 
 3.6728004768304E-11  5.7328196639536E-11  1.2295648375223E-10  2.3744107726252E-10  4.0078324754248E-10  6.1298480717008E-10  8.7404811091161E-10  1.1839760556867E-09  1.5427720806698E-09  1.7343875770029E-09 
 1.8364118899734E-03  2.8664280193120E-03  6.1478631962225E-03  1.1872129192644E-02  2.0039289528948E-02  3.0649434832086E-02  4.3702682838874E-02  5.9199178398071E-02  7.7139093467332E-02  8.6719929068500E-02 
 6.0005957090039E-04  3.0003012832725E-03  1.0201049925736E-02  2.2202379142834E-02  3.9004415846758E-02  6.0607340226544E-02  8.7011385746207E-02  1.1821683914111E-01  1.5422404042822E-01  1.7342812387721E-01 
 3.0727409059300E-03  2.7325183806811E-03  2.0945984494871E-03  1.5417285834178E-03  1.0739089074899E-03  6.9114049046355E-04  3.9342534495367E-04  1.8076642755756E-04  5.3167638765569E-05  1.0633823082325E-05 
 0.0000000000000E+00  0.0000000000000E+00  0.0000000000000E+00  0.0000000000000E+00  0.0000000000000E+00  0.0000000000000E+00  0.0000000000000E+00  0.0000000000000E+00  0.0000000000000E+00  0.0000000000000E+00 
 0.0000000000000E+00  0.0000000000000E+00  0.0000000000000E+00  0.0000000000000E+00  0.0000000000000E+00  0.0000000000000E+00  0.0000000000000E+00  0.0000000000000E+00  0.0000000000000E+00  0.0000000000000E+00 
 0.0000000000000E+00  0.0000000000000E+00  0.0000000000000E+00  0.0000000000000E+00  0.0000000000000E+00  0.0000000000000E+00  0.0000000000000E+00  0.0000000000000E+00  0.0000000000000E+00  0.0000000000000E+00 
ZONE T = "ANOD, 3.0000E-08", I = 10, SOLUTIONTIME = 3.000000E-08
ZONETYPE = ORDERED
DATAPACKING = BLOCK
STRANDID = 1
 0.0000000000000E+00  8.7488888888889E-05  1.7497777777778E-04  2.6246666666667E-04  3.4995555555556E-04  4.3744444444444E-04  5.2493333333333E-04  6.1242222222222E-04  6.9991111111111E-04  7.8740000000000E-04 
 1.1589975177340E-09  3.4769947608661E-09  5.7950006421297E-09  8.1130215920208E-09  1.0431064041084E-08  1.2749134419931E-08  1.5067239159263E-08  1.7386111105347E-08  1.9705030273671E-08  2.0863608665198E-08 
 9.1999999999791E-01  9.1999999999791E-01  9.1999999999791E-01  9.1999999999791E-01  9.1999999999791E-01  9.1999999999791E-01  9.1999999999791E-01  9.1999999999791E-01  9.1999999999791E-01  9.1999999999914E-01 
 4.0000000001045E-02  4.0000000001045E-02  4.0000000001045E-02  4.0000000001045E-02  4.0000000001045E-02  4.0000000001045E-02  4.0000000001045E-02  4.0000000001045E-02  4.0000000001045E-02  4.0000000000432E-02 
 4.0000000001045E-02  4.0000000001045E-02  4.0000000001045E-02  4.0000000001045E-02  4.0000000001045E-02  4.0000000001045E-02  4.0000000001045E-02  4.0000000001045E-02  4.0000000001045E-02  4.0000000000432E-02 
 2.9167373665896E-02  2.9167357938710E-02  2.9167310757124E-02  2.9167232121019E-02  2.9167122030192E-02  2.9166980484350E-02  2.9166807483115E-02  2.9166603026020E-02  2.9166367112512E-02  2.9166099741950E-02 
 0.0000000000000E+00 -4.7371510659827E-09 -8.9170107923714E-09 -1.2539577102392E-08 -1.5604846373256E-08 -1.8112813436146E-08 -2.0063471576202E-08 -2.1456812532500E-08 -2.2292826498024E-08 -2.2571502119635E-08 
-2.9167373665896E-02 -2.9167362675861E-02 -2.9167319674134E-02 -2.9167244660596E-02 -2.9167137635038E-02 -2.9166998597163E-02 -2.9166827546587E-02 -2.9166624482833E-02 -2.9166389405339E-02 -2.9166122313453E-02 
-4.0906712751892E-02 -4.0906712751891E-02 -4.0906712751892E-02 -4.0906712751892E-02 -4.0906712751890E-02 -4.0906712751894E-02 -4.0906712751893E-02 -4.0906712751894E-02 -4.0906712751894E-02 -4.0906712752287E-02 
 1.1739339085996E-02  1.1739350076030E-02  1.1739393077757E-02  1.1739468091296E-02  1.1739575116852E-02  1.1739714154731E-02  1.1739885205307E-02  1.1740088269062E-02  1.1740323346555E-02  1.1740590438834E-02 
 1.6690487381249E+00  3.3381006554622E+00  3.3381130950594E+00  3.3381347950833E+00  3.3381657556031E+00  3.3382059767163E+00  3.3382554585518E+00  3.3383142012685E+00  3.3383822050531E+00  1.6692297350909E+00 
 8.6492352036313E-09  2.5947722098768E-08  4.3246273445684E-08  6.0544937245048E-08  7.7843761501898E-08  9.5142794170055E-08  1.1244208327414E-07  1.2974167678847E-07  1.4704183905688E-07  1.4704183905688E-07 
 0.0000000000000E+00  3.3380990660169E+00  6.6762059410884E+00  1.0014329886063E+01  1.3352480161605E+01  1.6690666027643E+01  2.0028896745209E+01  2.3367181575337E+01  2.6705529778398E+01  3.0043950615923E+01 
 3.0043950616013E+01  2.6705851550157E+01  2.3367744674896E+01  2.0029620729825E+01  1.6691470454482E+01  1.3353284588322E+01  1.0015053870688E+01  6.6767690407782E+00  3.3384208376174E+00  0.0000000000000E+00 
 5.0071466212645E-08  1.0014302780145E-07  1.0014340098859E-07  1.0014405198793E-07  1.0014498080155E-07  1.0014618743240E-07  1.0014767188433E-07  1.0014943416211E-07  1.0015147427135E-07  5.0076896109718E-08 
 9.1448444543331E+04  1.8289688908666E+05  1.8289688908666E+05  1.8289688908666E+05  1.8289688908666E+05  1.8289688908666E+05  1.8289688908666E+05  1.8289688908666E+05  1.8289688908666E+05  9.1448444543331E+04 
 3.6579377817307E+05  7.3158755634615E+05  7.3158755634615E+05  7.3158755634615E+05  7.3158755634615E+05  7.3158755634615E+05  7.3158755634615E+05  7.3158755634615E+05  7.3158755634615E+05  3.6579377817307E+05 
 4.5724222271640E+05  9.1448444543281E+05  9.1448444543281E+05  9.1448444543281E+05  9.1448444543281E+05  9.1448444543281E+05  9.1448444543281E+05  9.1448444543281E+05  9.1448444543281E+05  4.5724222271640E+05 
 3.5000000000000E-01  3.5000000000000E-01  3.5000000000000E-01  3.5000000000000E-01  3.5000000000000E-01  3.5000000000000E-01  3.5000000000000E-01  3.5000000000000E-01  3.5000000000000E-01  3.5000000000000E-01 
 8.5301666666666E+00  1.7060333333333E+01  1.7060333333333E+01  1.7060333333333E+01  1.7060333333333E+01  1.7060333333333E+01  1.7060333333333E+01  1.7060333333333E+01  1.7060333333333E+01  8.5301666666666E+00 
 1.9566425878254E-01  1.9566444513368E-01  1.9566517428691E-01  1.9566644624470E-01  1.9566826101110E-01  1.9567061859184E-01  1.9567351899446E-01  1.9567696222828E-01  1.9568094830424E-01  1.9568547723853E-01 
 4.3744444444444E-05  8.7488888888889E-05  8.7488888888889E-05  8.7488888888889E-05  8.7488888888889E-05  8.7488888888889E-05  8.7488888888889E-05  8.7488888888889E-05  8.7488888888889E-05  4.3744444444444E-05 
 8.6666666666654E+01  8.6666666666654E+01  8.6666666666654E+01  8.6666666666654E+01  8.6666666666654E+01  8.6666666666654E+01  8.6666666666654E+01  8.6666666666654E+01  8.6666666666654E+01  8.6666666666654E+01 
 2.1666666666678E+01  2.1666666666678E+01  2.1666666666678E+01  2.1666666666678E+01  2.1666666666678E+01  2.1666666666678E+01  2.1666666666678E+01  2.1666666666678E+01  2.1666666666678E+01  2.1666666666678E+01 
 5.5092123668873E-11  8.5992476832992E-11  1.8443511571124E-10  3.5616236918173E-10  6.0117614282288E-10  9.1947915547294E-10  1.3110749392809E-09  1.7759678396441E-09  2.3141630153064E-09  2.6015868676482E-09 
 1.8364118900569E-03  2.8664280193456E-03  6.1478631959012E-03  1.1872129191921E-02  2.0039289528041E-02  3.0649434830287E-02  4.3702682836930E-02  5.9199178395737E-02  7.7139093463656E-02  8.6719929064532E-02 
 9.0009126016743E-04  4.5004614437999E-03  1.5301607252192E-02  3.3303639152278E-02  5.8506747514395E-02  9.0911202619210E-02  1.3051735466268E-01  1.7732563374967E-01  2.3133654990384E-01  2.6014273599647E-01 
 4.6091211067198E-03  4.0987862394993E-03  3.1419043189318E-03  2.3125977658957E-03  1.6108667678938E-03  1.0367129280844E-03  5.9013926540735E-04  2.7115021473218E-04  7.9751626795343E-05  1.5950768353260E-05 
 0.0000000000000E+00  0.0000000000000E+00  0.0000000000000E+00  0.0000000000000E+00  0.0000000000000E+00  0.0000000000000E+00  0.0000000000000E+00  0.0000000000000E+00  0.0000000000000E+00  0.0000000000000E+00 
 0.0000000000000E+00  0.0000000000000E+00  0.0000000000000E+00  0.0000000000000E+00  0.0000000000000E+00  0.0000000000000E+00  0.0000000000000E+00  0.0000000000000E+00  0.0000000000000E+00  0.0000000000000E+00 
 0.0000000000000E+00  0.0000000000000E+00  0.0000000000000E+00  0.0000000000000E+00  0.0000000000000E+00  0.0000000000000E+00  0.0000000000000E+00  0.0000000000000E+00  0.0000000000000E+00  0.0000000000000E+00 
ZONE T = "ANOD, 4.0000E-08", I = 10, SOLUTIONTIME = 4.000000E-08
ZONETYPE = ORDERED
DATAPACKING = BLOCK
STRANDID = 1
 0.0000000000000E+00  8.7488888888889E-05  1.7497777777778E-04  2.6246666666667E-04  3.4995555555556E-04  4.3744444444444E-04  5.2493333333333E-04  6.1242222222222E-04  6.9991111111111E-04  7.8740000000000E-04 
 1.1591791215780E-09  3.4768131569412E-09  5.7940926227096E-09  8.1124767802888E-09  1.0430156021584E-08  1.2747499984935E-08  1.5065604724228E-08  1.7383750254816E-08  1.9701943007644E-08  2.0861066210754E-08 
 9.1999999999721E-01  9.1999999999721E-01  9.1999999999721E-01  9.1999999999721E-01  9.1999999999721E-01  9.1999999999721E-01  9.1999999999721E-01  9.1999999999721E-01  9.1999999999721E-01  9.1999999999885E-01 
 4.0000000001393E-02  4.0000000001393E-02  4.0000000001393E-02  4.0000000001393E-02  4.0000000001393E-02  4.0000000001393E-02  4.0000000001393E-02  4.0000000001393E-02  4.0000000001393E-02  4.0000000000576E-02 
 4.0000000001393E-02  4.0000000001393E-02  4.0000000001393E-02  4.0000000001393E-02  4.0000000001393E-02  4.0000000001393E-02  4.0000000001393E-02  4.0000000001393E-02  4.0000000001393E-02  4.0000000000576E-02 
 2.9167373665684E-02  2.9167357938498E-02  2.9167310756912E-02  2.9167232120807E-02  2.9167122029980E-02  2.9166980484138E-02  2.9166807482903E-02  2.9166603025808E-02  2.9166367112300E-02  2.9166099741738E-02 
 0.0000000000000E+00 -4.7371510659033E-09 -8.9170107922224E-09 -1.2539577102183E-08 -1.5604846372996E-08 -1.8112813435845E-08 -2.0063471575871E-08 -2.1456812532147E-08 -2.2292826497659E-08 -2.2571502119267E-08 
-2.9167373665684E-02 -2.9167362675649E-02 -2.9167319673922E-02 -2.9167244660384E-02 -2.9167137634826E-02 -2.9166998596951E-02 -2.9166827546374E-02 -2.9166624482621E-02 -2.9166389405127E-02 -2.9166122313240E-02 
-4.0906712751392E-02 -4.0906712751389E-02 -4.0906712751392E-02 -4.0906712751392E-02 -4.0906712751397E-02 -4.0906712751393E-02 -4.0906712751393E-02 -4.0906712751393E-02 -4.0906712751393E-02 -4.0906712751917E-02 
 1.1739339085708E-02  1.1739350075740E-02  1.1739393077469E-02  1.1739468091008E-02  1.1739575116571E-02  1.1739714154441E-02  1.1739885205018E-02  1.1740088268772E-02  1.1740323346266E-02  1.1740590438677E-02 
 1.6690487380963E+00  3.3381006554028E+00  3.3381130950022E+00  3.3381347950261E+00  3.3381657555458E+00  3.3382059766582E+00  3.3382554584948E+00  3.3383142012104E+00  3.3383822049951E+00  1.6692297350771E+00 