TITLE = "Solution on Domain BulkDomain1D_0"
VARIABLES = "x [m]"  
"Vel_axial" 
"MF_sp(ECDMC)" 
"MF_sp(Li+)" 
"MF_sp(PF6-)" 
"Volt(Electroly)" 
"Volt(AnodeVolt)" 
"Potential Drop Electrode-Electrolyte [V]" 
"Surf_0 Equilibrium Potential Drop Electrode-Electrolyte [V]" 
"Overpotential_0 [V]" 
"Current Source [A/m^2]" 
"Li+ flux [kmol/m^2/s]" 
"Electrolyte Current [A/m^2]" 
"Electrode Current [A/m^2]" 
"CV Capacity discharged [A-s/m^2]" 
"Depth of discharge in CV [A-s/m^2]" 
"CV Capacity remaining [A-s/m^2]" 
"Initial CV capacity [A-s/m^2]" 
"Porosity []" 
"Surface Area [m2/m2] (area per area)" 
"Specific current (per particle area) [A/m^2]" 
"Control volume thickness [m]" 
"MoleDens Li_C6-bulk [kmol/m^3]" 
"MoleDens V_C6-bulk [kmol/m^3]" 
"qHeat_accum [J/m3]" 
"qHeat_step [W/m3]" 
"Joule_Lyte [W/m3]" 
"Joule_Solid [W/m3]" 
"electrodHeat [W/m3]" 
"OverpotHeat [W/m3]" 
"deltaSHeat [W/m3]" 

ZONE T = "ANOD, 0.0000E+00", I = 10, SOLUTIONTIME = 0.000000E+00
ZONETYPE = ORDERED
DATAPACKING = BLOCK
STRANDID = 1
 0.0000000000000E+00  8.7488888888889E-05  1.7497777777778E-04  2.6246666666667E-04  3.4995555555556E-04  4.3744444444444E-04  5.2493333333333E-04  6.1242222222222E-04  6.9991111111111E-04  7.8740000000000E-04 
 0.0000000000000E+00  0.0000000000000E+00  0.0000000000000E+00  0.0000000000000E+00  0.0000000000000E+00  0.0000000000000E+00  0.0000000000000E+00  0.0000000000000E+00  0.0000000000000E+00  0.0000000000000E+00 
 9.2000000000000E-01  9.2000000000000E-01  9.2000000000000E-01  9.2000000000000E-01  9.2000000000000E-01  9.2000000000000E-01  9.2000000000000E-01  9.2000000000000E-01  9.2000000000000E-01  9.2000000000000E-01 
 4.0000000000000E-02  4.0000000000000E-02  4.0000000000000E-02  4.0000000000000E-02  4.0000000000000E-02  4.0000000000000E-02  4.0000000000000E-02  4.0000000000000E-02  4.0000000000000E-02  4.0000000000000E-02 
 4.0000000000000E-02  4.0000000000000E-02  4.0000000000000E-02  4.0000000000000E-02  4.0000000000000E-02  4.0000000000000E-02  4.0000000000000E-02  4.0000000000000E-02  4.0000000000000E-02  4.0000000000000E-02 
-7.0000000000000E-02 -7.0000000000000E-02 -7.0000000000000E-02 -7.0000000000000E-02 -7.0000000000000E-02 -7.0000000000000E-02 -7.0000000000000E-02 -7.0000000000000E-02 -7.0000000000000E-02 -7.0000000000000E-02 
 0.0000000000000E+00  0.0000000000000E+00  0.0000000000000E+00  0.0000000000000E+00  0.0000000000000E+00  0.0000000000000E+00  0.0000000000000E+00  0.0000000000000E+00  0.0000000000000E+00  0.0000000000000E+00 
 7.0000000000000E-02  7.0000000000000E-02  7.0000000000000E-02  7.0000000000000E-02  7.0000000000000E-02  7.0000000000000E-02  7.0000000000000E-02  7.0000000000000E-02  7.0000000000000E-02  7.0000000000000E-02 
-4.0906712753390E-02 -4.0906712753390E-02 -4.0906712753390E-02 -4.0906712753390E-02 -4.0906712753390E-02 -4.0906712753390E-02 -4.0906712753390E-02 -4.0906712753390E-02 -4.0906712753390E-02 -4.0906712753390E-02 
 1.1090671275339E-01  1.1090671275339E-01  1.1090671275339E-01  1.1090671275339E-01  1.1090671275339E-01  1.1090671275339E-01  1.1090671275339E-01  1.1090671275339E-01  1.1090671275339E-01  1.1090671275339E-01 
 3.0930240924008E+01  6.1860481848016E+01  6.1860481848016E+01  6.1860481848016E+01  6.1860481848016E+01  6.1860481848016E+01  6.1860481848016E+01  6.1860481848016E+01  6.1860481848016E+01  3.0930240924008E+01 
-0.0000000000000E+00 -0.0000000000000E+00 -0.0000000000000E+00 -0.0000000000000E+00 -0.0000000000000E+00 -0.0000000000000E+00 -0.0000000000000E+00 -0.0000000000000E+00 -0.0000000000000E+00 -0.0000000000000E+00 
 0.0000000000000E+00  0.0000000000000E+00  0.0000000000000E+00  0.0000000000000E+00  0.0000000000000E+00  0.0000000000000E+00  0.0000000000000E+00  0.0000000000000E+00  0.0000000000000E+00  3.0930240924008E+01 
 3.0930240924008E+01 -0.0000000000000E+00 -0.0000000000000E+00 -0.0000000000000E+00 -0.0000000000000E+00 -0.0000000000000E+00 -0.0000000000000E+00 -0.0000000000000E+00 -0.0000000000000E+00  0.0000000000000E+00 
 0.0000000000000E+00  0.0000000000000E+00  0.0000000000000E+00  0.0000000000000E+00  0.0000000000000E+00  0.0000000000000E+00  0.0000000000000E+00  0.0000000000000E+00  0.0000000000000E+00  0.0000000000000E+00 
 9.1448444543281E+04  1.8289688908656E+05  1.8289688908656E+05  1.8289688908656E+05  1.8289688908656E+05  1.8289688908656E+05  1.8289688908656E+05  1.8289688908656E+05  1.8289688908656E+05  9.1448444543281E+04 
 3.6579377817312E+05  7.3158755634625E+05  7.3158755634625E+05  7.3158755634625E+05  7.3158755634625E+05  7.3158755634625E+05  7.3158755634625E+05  7.3158755634625E+05  7.3158755634625E+05  3.6579377817312E+05 
 4.5724222271640E+05  9.1448444543281E+05  9.1448444543281E+05  9.1448444543281E+05  9.1448444543281E+05  9.1448444543281E+05  9.1448444543281E+05  9.1448444543281E+05  9.1448444543281E+05  4.5724222271640E+05 
 3.5000000000000E-01  3.5000000000000E-01  3.5000000000000E-01  3.5000000000000E-01  3.5000000000000E-01  3.5000000000000E-01  3.5000000000000E-01  3.5000000000000E-01  3.5000000000000E-01  3.5000000000000E-01 
 8.5301666666666E+00  1.7060333333333E+01  1.7060333333333E+01  1.7060333333333E+01  1.7060333333333E+01  1.7060333333333E+01  1.7060333333333E+01  1.7060333333333E+01  1.7060333333333E+01  8.5301666666666E+00 
 3.6259831879809E+00  3.6259831879809E+00  3.6259831879809E+00  3.6259831879809E+00  3.6259831879809E+00  3.6259831879809E+00  3.6259831879809E+00  3.6259831879809E+00  3.6259831879809E+00  3.6259831879809E+00 
 4.3744444444444E-05  8.7488888888889E-05  8.7488888888889E-05  8.7488888888889E-05  8.7488888888889E-05  8.7488888888889E-05  8.7488888888889E-05  8.7488888888889E-05  8.7488888888889E-05  4.3744444444444E-05 
 8.6666666666666E+01  8.6666666666666E+01  8.6666666666666E+01  8.6666666666666E+01  8.6666666666666E+01  8.6666666666666E+01  8.6666666666666E+01  8.6666666666666E+01  8.6666666666666E+01  8.6666666666666E+01 
 2.1666666666667E+01  2.1666666666667E+01  2.1666666666667E+01  2.1666666666667E+01  2.1666666666667E+01  2.1666666666667E+01  2.1666666666667E+01  2.1666666666667E+01  2.1666666666667E+01  2.1666666666667E+01 
 0.0000000000000E+00  0.0000000000000E+00  0.0000000000000E+00  0.0000000000000E+00  0.0000000000000E+00  0.0000000000000E+00  0.0000000000000E+00  0.0000000000000E+00  0.0000000000000E+00  0.0000000000000E+00 
 0.0000000000000E+00  0.0000000000000E+00  0.0000000000000E+00  0.0000000000000E+00  0.0000000000000E+00  0.0000000000000E+00  0.0000000000000E+00  0.0000000000000E+00  0.0000000000000E+00  0.0000000000000E+00 
 0.0000000000000E+00  0.0000000000000E+00  0.0000000000000E+00  0.0000000000000E+00  0.0000000000000E+00  0.0000000000000E+00  0.0000000000000E+00  0.0000000000000E+00  0.0000000000000E+00  0.0000000000000E+00 
 0.0000000000000E+00  0.0000000000000E+00  0.0000000000000E+00  0.0000000000000E+00  0.0000000000000E+00  0.0000000000000E+00  0.0000000000000E+00  0.0000000000000E+00  0.0000000000000E+00  0.0000000000000E+00 
 0.0000000000000E+00  0.0000000000000E+00  0.0000000000000E+00  0.0000000000000E+00  0.0000000000000E+00  0.0000000000000E+00  0.0000000000000E+00  0.0000000000000E+00  0.0000000000000E+00  0.0000000000000E+00 
 0.0000000000000E+00  0.0000000000000E+00  0.0000000000000E+00  0.0000000000000E+00  0.0000000000000E+00  0.0000000000000E+00  0.0000000000000E+00  0.0000000000000E+00  0.0000000000000E+00  0.0000000000000E+00 
 0.0000000000000E+00  0.0000000000000E+00  0.0000000000000E+00  0.0000000000000E+00  0.0000000000000E+00  0.0000000000000E+00  0.0000000000000E+00  0.0000000000000E+00  0.0000000000000E+00  0.0000000000000E+00 
ZONE T = "ANOD, 1.0000E-08", I = 10, SOLUTIONTIME = 1.000000E-08
ZONETYPE = ORDERED
DATAPACKING = BLOCK
STRANDID = 1
 0.0000000000000E+00  8.7488888888889E-05  1.7497777777778E-04  2.6246666666667E-04  3.4995555555556E-04  4.3744444444444E-04  5.2493333333333E-04  6.1242222222222E-04  6.9991111111111E-04  7.8740000000000E-04 
 1.1589917712006E-09  3.4769775214972E-09  5.7949719098880E-09  8.1129813668593E-09  1.0431012323170E-08  1.2749071209420E-08  1.5067164456526E-08  1.7385298495037E-08  1.9703479755889E-08  2.0863142024721E-08 
 9.1999999999930E-01  9.1999999999930E-01  9.1999999999930E-01  9.1999999999930E-01  9.1999999999930E-01  9.1999999999930E-01  9.1999999999930E-01  9.1999999999930E-01  9.1999999999930E-01  9.1999999999971E-01 
 4.0000000000348E-02  4.0000000000348E-02  4.0000000000348E-02  4.0000000000348E-02  4.0000000000348E-02  4.0000000000348E-02  4.0000000000348E-02  4.0000000000348E-02  4.0000000000348E-02  4.0000000000144E-02 
 4.0000000000348E-02  4.0000000000348E-02  4.0000000000348E-02  4.0000000000348E-02  4.0000000000348E-02  4.0000000000348E-02  4.0000000000348E-02  4.0000000000348E-02  4.0000000000348E-02  4.0000000000144E-02 
 2.9167371469660E-02  2.9167355742543E-02  2.9167308561187E-02  2.9167229925478E-02  2.9167119835193E-02  2.9166978290061E-02  2.9166805289686E-02  2.9166600833601E-02  2.9166364921259E-02  2.9166097552019E-02 
 0.0000000000000E+00 -4.7371275803319E-09 -8.9169665841696E-09 -1.2539514934748E-08 -1.5604769009289E-08 -1.8112723638936E-08 -2.0063372108793E-08 -2.1456706157844E-08 -2.2292715979047E-08 -2.2571390219240E-08 
-2.9167371469660E-02 -2.9167360479671E-02 -2.9167317478153E-02 -2.9167242464993E-02 -2.9167135439962E-02 -2.9166996402784E-02 -2.9166825353058E-02 -2.9166622290308E-02 -2.9166387213975E-02 -2.9166120123409E-02 
-4.0906712752893E-02 -4.0906712752892E-02 -4.0906712752893E-02 -4.0906712752893E-02 -4.0906712752887E-02 -4.0906712752893E-02 -4.0906712752893E-02 -4.0906712752887E-02 -4.0906712752887E-02 -4.0906712753018E-02 
 1.1739341283233E-02  1.1739352273221E-02  1.1739395274739E-02  1.1739470287900E-02  1.1739577312925E-02  1.1739716350108E-02  1.1739887399834E-02  1.1740090462579E-02  1.1740325538912E-02  1.1740592629608E-02 
 1.6690490559097E+00  3.3381012910183E+00  3.3381137305555E+00  3.3381354304703E+00  3.3381663908374E+00  3.3382066117491E+00  3.3382560933393E+00  3.3383148357662E+00  3.3383828392156E+00  1.6692300519522E+00 
 8.6491973200863E-09  2.5947595451968E-08  4.3246055782062E-08  6.0544639218748E-08  7.7843371178996E-08  9.5142320838366E-08  1.1244152790415E-07  1.2974103584998E-07  1.4704096767244E-07  1.4704096767244E-07 
 0.0000000000000E+00  3.3380831910336E+00  6.6761727201814E+00  1.0014280128526E+01  1.3352413745197E+01  1.6690582697204E+01  2.0028797490081E+01  2.3367066148828E+01  2.6705397777775E+01  3.0043810614304E+01 
 3.0043810257888E+01  2.6705719149547E+01  2.3367628824911E+01  2.0029521430525E+01  1.6691387705780E+01  1.3353218389987E+01  1.0015004222341E+01  6.6767359420723E+00  3.3384042884004E+00  0.0000000000000E+00 
 1.6690490559097E-08  3.3381012910183E-08  3.3381137305555E-08  3.3381354304703E-08  3.3381663908374E-08  3.3382066117491E-08  3.3382560933393E-08  3.3383148357662E-08  3.3383828392156E-08  1.6692300519522E-08 
 9.1448444543298E+04  1.8289688908659E+05  1.8289688908660E+05  1.8289688908660E+05  1.8289688908660E+05  1.8289688908659E+05  1.8289688908659E+05  1.8289688908660E+05  1.8289688908660E+05  9.1448444543298E+04 
 3.6579377817311E+05  7.3158755634621E+05  7.3158755634621E+05  7.3158755634621E+05  7.3158755634621E+05  7.3158755634621E+05  7.3158755634621E+05  7.3158755634621E+05  7.3158755634621E+05  3.6579377817311E+05 
 4.5724222271640E+05  9.1448444543281E+05  9.1448444543281E+05  9.1448444543281E+05  9.1448444543281E+05  9.1448444543281E+05  9.1448444543281E+05  9.1448444543281E+05  9.1448444543281E+05  4.5724222271640E+05 
 3.5000000000000E-01  3.5000000000000E-01  3.5000000000000E-01  3.5000000000000E-01  3.5000000000000E-01  3.5000000000000E-01  3.5000000000000E-01  3.5000000000000E-01  3.5000000000000E-01  3.5000000000000E-01 
 8.5301666666666E+00  1.7060333333333E+01  1.7060333333333E+01  1.7060333333333E+01  1.7060333333333E+01  1.7060333333333E+01  1.7060333333333E+01  1.7060333333333E+01  1.7060333333333E+01  8.5301666666666E+00 
 1.9566429603678E-01  1.9566448238711E-01  1.9566521153683E-01  1.9566648348822E-01  1.9566829824568E-01  1.9567065581461E-01  1.9567355620284E-01  1.9567699941968E-01  1.9568098547599E-01  1.9568551438450E-01 
 4.3744444444444E-05  8.7488888888889E-05  8.7488888888889E-05  8.7488888888889E-05  8.7488888888889E-05  8.7488888888889E-05  8.7488888888889E-05  8.7488888888889E-05  8.7488888888889E-05  4.3744444444444E-05 
 8.6666666666662E+01  8.6666666666662E+01  8.6666666666662E+01  8.6666666666662E+01  8.6666666666662E+01  8.6666666666662E+01  8.6666666666662E+01  8.6666666666662E+01  8.6666666666662E+01  8.6666666666662E+01 
 2.1666666666671E+01  2.1666666666671E+01  2.1666666666671E+01  2.1666666666671E+01  2.1666666666671E+01  2.1666666666671E+01  2.1666666666671E+01  2.1666666666671E+01  2.1666666666671E+01  2.1666666666671E+01 
 1.8363940275186E-11  2.8663999784946E-11  6.1478018793149E-11  1.1872011426489E-10  2.0039089975723E-10  3.0649128929243E-10  4.3702249820484E-10  5.9198593540467E-10  7.7138330872395E-10  8.6719071373967E-10 
 1.8363940275186E-03  2.8663999784946E-03  6.1478018793149E-03  1.1872011426489E-02  2.0039089975723E-02  3.0649128929243E-02  4.3702249820484E-02  5.9198593540467E-02  7.7138330872395E-02  8.6719071373967E-02 
 3.0002906069483E-04  1.5001456668423E-03  5.1005063942800E-03  1.1101149887354E-02  1.9502137439295E-02  3.0303559917938E-02  4.3505537850396E-02  5.9108210649410E-02  7.7111747147930E-02  8.6713754481409E-02 
 1.5363649668237E-03  1.3662543116523E-03  1.0472954850350E-03  7.7086153913507E-04  5.3695253642808E-04  3.4556901130434E-04  1.9671197008800E-04  9.0382891057082E-05  2.6583724464938E-05  5.3168925579933E-06 
 0.0000000000000E+00  0.0000000000000E+00  0.0000000000000E+00  0.0000000000000E+00  0.0000000000000E+00  0.0000000000000E+00  0.0000000000000E+00  0.0000000000000E+00  0.0000000000000E+00  0.0000000000000E+00 
 0.0000000000000E+00  0.0000000000000E+00  0.0000000000000E+00  0.0000000000000E+00  0.0000000000000E+00  0.0000000000000E+00  0.0000000000000E+00  0.0000000000000E+00  0.0000000000000E+00  0.0000000000000E+00 
 0.0000000000000E+00  0.0000000000000E+00  0.0000000000000E+00  0.0000000000000E+00  0.0000000000000E+00  0.0000000000000E+00  0.0000000000000E+00  0.0000000000000E+00  0.0000000000000E+00  0.0000000000000E+00 
ZONE T = "ANOD, 2.0000E-08", I = 10, SOLUTIONTIME = 2.000000E-08
ZONETYPE = ORDERED
DATAPACKING = BLOCK
STRANDID = 1
 0.0000000000000E+00  8.7488888888889E-05  1.7497777777778E-04  2.6246666666667E-04  3.4995555555556E-04  4.3744444444444E-04  5.2493333333333E-04  6.1242222222222E-04  6.9991111111111E-04  7.8740000000000E-04 
 1.1589975178088E-09  3.4769947610904E-09  5.7950006425037E-09  8.1130215925446E-09  1.0431064041756E-08  1.2749134420752E-08  1.5066512744778E-08  1.7383931860100E-08  1.9701398197660E-08  2.0861066212436E-08 
 9.1999999999861E-01  9.1999999999861E-01  9.1999999999861E-01  9.1999999999861E-01  9.1999999999861E-01  9.1999999999861E-01  9.1999999999861E-01  9.1999999999861E-01  9.1999999999861E-01  9.1999999999942E-01 
 4.0000000000696E-02  4.0000000000696E-02  4.0000000000696E-02  4.0000000000696E-02  4.0000000000696E-02  4.0000000000696E-02  4.0000000000696E-02  4.0000000000696E-02  4.0000000000696E-02  4.0000000000288E-02 
 4.0000000000696E-02  4.0000000000696E-02  4.0000000000696E-02  4.0000000000696E-02  4.0000000000696E-02  4.0000000000696E-02  4.0000000000696E-02  4.0000000000696E-02  4.0000000000696E-02  4.0000000000288E-02 
 2.9167373665566E-02  2.9167357938380E-02  2.9167310756794E-02  2.9167232120689E-02  2.9167122029862E-02  2.9166980484020E-02  2.9166807482785E-02  2.9166603025690E-02  2.9166367112182E-02  2.9166099741620E-02 
 0.0000000000000E+00 -4.7371510662850E-09 -8.9170107929400E-09 -1.2539577103191E-08 -1.5604846374249E-08 -1.8112813437298E-08 -2.0063471577477E-08 -2.1456812533862E-08 -2.2292826499437E-08 -2.2571502121062E-08 
-2.9167373665566E-02 -2.9167362675531E-02 -2.9167319673804E-02 -2.9167244660266E-02 -2.9167137634708E-02 -2.9166998596833E-02 -2.9166827546256E-02 -2.9166624482503E-02 -2.9166389405009E-02 -2.9166122313122E-02 
-4.0906712752394E-02 -4.0906712752395E-02 -4.0906712752394E-02 -4.0906712752394E-02 -4.0906712752395E-02 -4.0906712752394E-02 -4.0906712752394E-02 -4.0906712752394E-02 -4.0906712752394E-02 -4.0906712752657E-02 
 1.1739339086829E-02  1.1739350076864E-02  1.1739393078590E-02  1.1739468092128E-02  1.1739575117687E-02  1.1739714155561E-02  1.1739885206137E-02  1.1740088269892E-02  1.1740323347386E-02  1.1740590439534E-02 
 1.6690487382327E+00  3.3381006556772E+00  3.3381130952751E+00  3.3381347952988E+00  3.3381657558175E+00  3.3382059769312E+00  3.3382554587668E+00  3.3383142014823E+00  3.3383822052669E+00  1.6692297351832E+00 
 8.6492352061580E-09  2.5947722098196E-08  4.3246273451378E-08  6.0544937256324E-08  7.7843761507292E-08  9.5142794179453E-08  1.1244208328079E-07  1.2974167679723E-07  1.4704176694566E-07  1.4704176694566E-07 
 0.0000000000000E+00  3.3380990659879E+00  6.6762059415825E+00  1.0014329886896E+01  1.3352480162409E+01  1.6690666028786E+01  2.0028896746692E+01  2.3367181576606E+01  2.6705529780042E+01  3.0043950618050E+01 
 3.0043950617932E+01  2.6705851551860E+01  2.3367744676384E+01  2.0029620731097E+01  1.6691470455539E+01  1.3353284589165E+01  1.0015053871316E+01  6.6767690411913E+00  3.3384208378167E+00  0.0000000000000E+00 
 3.3380977941424E-08  6.6762019466955E-08  6.6762268258306E-08  6.6762702257691E-08  6.6763321466549E-08  6.6764125886803E-08  6.6765115521060E-08  6.6766290372485E-08  6.6767650444826E-08  3.3384597871354E-08 
 9.1448444543314E+04  1.8289688908663E+05  1.8289688908663E+05  1.8289688908663E+05  1.8289688908663E+05  1.8289688908663E+05  1.8289688908663E+05  1.8289688908663E+05  1.8289688908663E+05  9.1448444543314E+04 
 3.6579377817309E+05  7.3158755634618E+05  7.3158755634618E+05  7.3158755634618E+05  7.3158755634618E+05  7.3158755634618E+05  7.3158755634618E+05  7.3158755634618E+05  7.3158755634618E+05  3.6579377817309E+05 
 4.5724222271640E+05  9.1448444543281E+05  9.1448444543281E+05  9.1448444543281E+05  9.1448444543281E+05  9.1448444543281E+05  9.1448444543281E+05  9.1448444543281E+05  9.1448444543281E+05  4.5724222271640E+05 
 3.5000000000000E-01  3.5000000000000E-01  3.5000000000000E-01  3.5000000000000E-01  3.5000000000000E-01  3.5000000000000E-01  3.5000000000000E-01  3.5000000000000E-01  3.5000000000000E-01  3.5000000000000E-01 
 8.5301666666666E+00  1.7060333333333E+01  1.7060333333333E+01  1.7060333333333E+01  1.7060333333333E+01  1.7060333333333E+01  1.7060333333333E+01  1.7060333333333E+01  1.7060333333333E+01  8.5301666666666E+00 
 1.9566425879518E-01  1.9566444514628E-01  1.9566517429955E-01  1.9566644625733E-01  1.9566826102367E-01  1.9567061860443E-01  1.9567351900706E-01  1.9567696224081E-01  1.9568094831678E-01  1.9568547724936E-01 
 4.3744444444444E-05  8.7488888888889E-05  8.7488888888889E-05  8.7488888888889E-05  8.7488888888889E-05  8.7488888888889E-05  8.7488888888889E-05  8.7488888888889E-05  8.7488888888889E-05  4.3744444444444E-05 
 8.6666666666658E+01  8.6666666666658E+01  8.6666666666658E+01  8.6666666666658E+01  8.6666666666658E+01  8.6666666666658E+01  8.6666666666658E+01  8.6666666666658E+01  8.6666666666658E+01  8.6666666666658E+01 
 2.1666666666674E+01  2.1666666666674E+01  2.1666666666674E+01  2.1666666666674E+01  2.1666666666674E+01  2.1666666666674E+01  2.1666666666674E+01  2.1666666666674E+01  2.1666666666674E+01  2.1666666666674E+01 
 3.6728059176366E-11  5.7328279981338E-11  1.2295665076165E-10  2.3744140620463E-10  4.0078379506244E-10  6.1298563764141E-10  8.7404932664142E-10  1.1839777194311E-09  1.5427742434622E-09  1.7343900045147E-09 
 1.8364118901180E-03  2.8664280196391E-03  6.1478631968506E-03  1.1872129193974E-02  2.0039289530520E-02  3.0649434834898E-02  4.3702682843658E-02  5.9199178402647E-02  7.7139093473821E-02  8.6719929077502E-02 
 6.0006074982688E-04  3.0003058274890E-03  1.0201063721552E-02  2.2202409898752E-02  3.9004469109344E-02  6.0607422315172E-02  8.7011506773576E-02  1.1821700526487E-01  1.5422425663372E-01  1.7342836661364E-01 
 3.0727451678097E-03  2.7325221706448E-03  2.0946013546130E-03  1.5417307217108E-03  1.0739103969000E-03  6.9114144896883E-04  3.9342589056634E-04  1.8076667824290E-04  5.3167712497932E-05  1.0633837829516E-05 
 0.0000000000000E+00  0.0000000000000E+00  0.0000000000000E+00  0.0000000000000E+00  0.0000000000000E+00  0.0000000000000E+00  0.0000000000000E+00  0.0000000000000E+00  0.0000000000000E+00  0.0000000000000E+00 
 0.0000000000000E+00  0.0000000000000E+00  0.0000000000000E+00  0.0000000000000E+00  0.0000000000000E+00  0.0000000000000E+00  0.0000000000000E+00  0.0000000000000E+00  0.0000000000000E+00  0.0000000000000E+00 
 0.0000000000000E+00  0.0000000000000E+00  0.0000000000000E+00  0.0000000000000E+00  0.0000000000000E+00  0.0000000000000E+00  0.0000000000000E+00  0.0000000000000E+00  0.0000000000000E+00  0.0000000000000E+00 
ZONE T = "ANOD, 3.0000E-08", I = 10, SOLUTIONTIME = 3.000000E-08
ZONETYPE = ORDERED
DATAPACKING = BLOCK
STRANDID = 1
 0.0000000000000E+00  8.7488888888889E-05  1.7497777777778E-04  2.6246666666667E-04  3.4995555555556E-04  4.3744444444444E-04  5.2493333333333E-04  6.1242222222222E-04  6.9991111111111E-04  7.8740000000000E-04 
 1.1589975177886E-09  3.4769947610298E-09  5.7950006424027E-09  8.1130215924032E-09  1.0431064041576E-08  1.2749134420531E-08  1.5067965575428E-08  1.7386837521621E-08  1.9705756690053E-08  2.0864335081636E-08 
 9.1999999999791E-01  9.1999999999791E-01  9.1999999999791E-01  9.1999999999791E-01  9.1999999999791E-01  9.1999999999791E-01  9.1999999999791E-01  9.1999999999791E-01  9.1999999999791E-01  9.1999999999914E-01 
 4.0000000001045E-02  4.0000000001045E-02  4.0000000001045E-02  4.0000000001045E-02  4.0000000001045E-02  4.0000000001045E-02  4.0000000001045E-02  4.0000000001045E-02  4.0000000001045E-02  4.0000000000432E-02 
 4.0000000001045E-02  4.0000000001045E-02  4.0000000001045E-02  4.0000000001045E-02  4.0000000001045E-02  4.0000000001045E-02  4.0000000001045E-02  4.0000000001045E-02  4.0000000001045E-02  4.0000000000432E-02 
 2.9167373665352E-02  2.9167357938167E-02  2.9167310756580E-02  2.9167232120476E-02  2.9167122029648E-02  2.9166980483807E-02  2.9166807482571E-02  2.9166603025477E-02  2.9166367111969E-02  2.9166099741407E-02 
 0.0000000000000E+00 -4.7371510662056E-09 -8.9170107927909E-09 -1.2539577102982E-08 -1.5604846373990E-08 -1.8112813436997E-08 -2.0063471577145E-08 -2.1456812533509E-08 -2.2292826499072E-08 -2.2571502120696E-08 
-2.9167373665352E-02 -2.9167362675318E-02 -2.9167319673591E-02 -2.9167244660053E-02 -2.9167137634495E-02 -2.9166998596620E-02 -2.9166827546043E-02 -2.9166624482289E-02 -2.9166389404795E-02 -2.9166122312909E-02 
-4.0906712751895E-02 -4.0906712751897E-02 -4.0906712751895E-02 -4.0906712751895E-02 -4.0906712751895E-02 -4.0906712751895E-02 -4.0906712751892E-02 -4.0906712751892E-02 -4.0906712751892E-02 -4.0906712752285E-02 
 1.1739339086543E-02  1.1739350076579E-02  1.1739393078304E-02  1.1739468091842E-02  1.1739575117401E-02  1.1739714155275E-02  1.1739885205849E-02  1.1740088269603E-02  1.1740323347097E-02  1.1740590439376E-02 
 1.6690487382036E+00  3.3381006556190E+00  3.3381130952169E+00  3.3381347952407E+00  3.3381657557606E+00  3.3382059768730E+00  3.3382554587087E+00  3.3383142014252E+00  3.3383822052099E+00  1.6692297351693E+00 
 8.6492352039783E-09  2.5947722098768E-08  4.3246273451755E-08  6.0544937248864E-08  7.7843761506061E-08  9.5142794178034E-08  1.1244208327761E-07  1.2974167679419E-07  1.4704183906225E-07  1.4704183906225E-07 
 0.0000000000000E+00  3.3380990658328E+00  6.6762059414566E+00  1.0014329886799E+01  1.3352480162157E+01  1.6690666028379E+01  2.0028896746314E+01  2.3367181576442E+01  2.6705529779686E+01  3.0043950617474E+01 
 3.0043950617427E+01  2.6705851551414E+01  2.3367744675996E+01  2.0029620730767E+01  1.6691470455266E+01  1.3353284588950E+01  1.0015053871159E+01  6.6767690410918E+00  3.3384208377742E+00  0.0000000000000E+00 
 5.0071465323460E-08  1.0014302602314E-07  1.0014339921047E-07  1.0014405021010E-07  1.0014497902415E-07  1.0014618565553E-07  1.0014767010815E-07  1.0014943238674E-07  1.0015147249692E-07  5.0076895223047E-08 
 9.1448444543331E+04  1.8289688908666E+05  1.8289688908666E+05  1.8289688908666E+05  1.8289688908666E+05  1.8289688908666E+05  1.8289688908666E+05  1.8289688908666E+05  1.8289688908666E+05  9.1448444543331E+04 
 3.6579377817307E+05  7.3158755634615E+05  7.3158755634615E+05  7.3158755634615E+05  7.3158755634615E+05  7.3158755634615E+05  7.3158755634615E+05  7.3158755634615E+05  7.3158755634615E+05  3.6579377817307E+05 
 4.5724222271640E+05  9.1448444543281E+05  9.1448444543281E+05  9.1448444543281E+05  9.1448444543281E+05  9.1448444543281E+05  9.1448444543281E+05  9.1448444543281E+05  9.1448444543281E+05  4.5724222271640E+05 
 3.5000000000000E-01  3.5000000000000E-01  3.5000000000000E-01  3.5000000000000E-01  3.5000000000000E-01  3.5000000000000E-01  3.5000000000000E-01  3.5000000000000E-01  3.5000000000000E-01  3.5000000000000E-01 
 8.5301666666666E+00  1.7060333333333E+01  1.7060333333333E+01  1.7060333333333E+01  1.7060333333333E+01  1.7060333333333E+01  1.7060333333333E+01  1.7060333333333E+01  1.7060333333333E+01  8.5301666666666E+00 
 1.9566425879177E-01  1.9566444514286E-01  1.9566517429614E-01  1.9566644625393E-01  1.9566826102034E-01  1.9567061860102E-01  1.9567351900365E-01  1.9567696223746E-01  1.9568094831343E-01  1.9568547724773E-01 
 4.3744444444444E-05  8.7488888888889E-05  8.7488888888889E-05  8.7488888888889E-05  8.7488888888889E-05  8.7488888888889E-05  8.7488888888889E-05  8.7488888888889E-05  8.7488888888889E-05  4.3744444444444E-05 
 8.6666666666654E+01  8.6666666666654E+01  8.6666666666654E+01  8.6666666666654E+01  8.6666666666654E+01  8.6666666666654E+01  8.6666666666654E+01  8.6666666666654E+01  8.6666666666654E+01  8.6666666666654E+01 
 2.1666666666678E+01  2.1666666666678E+01  2.1666666666678E+01  2.1666666666678E+01  2.1666666666678E+01  2.1666666666678E+01  2.1666666666678E+01  2.1666666666678E+01  2.1666666666678E+01  2.1666666666678E+01 
 5.5092178077057E-11  8.5992560175417E-11  1.8443528272827E-10  3.5616269814045E-10  6.0117669035857E-10  9.1947998597240E-10  1.3110761550586E-09  1.7759695034442E-09  2.3141651781735E-09  2.6015892952500E-09 
 1.8364118900691E-03  2.8664280194079E-03  6.1478631966616E-03  1.1872129193582E-02  2.0039289529614E-02  3.0649434833099E-02  4.3702682841714E-02  5.9199178401305E-02  7.7139093471138E-02  8.6719929073535E-02 
 9.0009243896155E-04  4.5004659879501E-03  1.5301621048671E-02  3.3303669909784E-02  5.8506800778503E-02  9.0911284710617E-02  1.3051747569482E-01  1.7732579987899E-01  2.3133676611682E-01  2.6014297874190E-01 
 4.6091253687441E-03  4.0987900295916E-03  3.1419072241563E-03  2.3125999042612E-03  1.6108682573543E-03  1.0367138866222E-03  5.9013981103849E-04  2.7115046542601E-04  7.9751700530204E-05  1.5950783100950E-05 
 0.0000000000000E+00  0.0000000000000E+00  0.0000000000000E+00  0.0000000000000E+00  0.0000000000000E+00  0.0000000000000E+00  0.0000000000000E+00  0.0000000000000E+00  0.0000000000000E+00  0.0000000000000E+00 
 0.0000000000000E+00  0.0000000000000E+00  0.0000000000000E+00  0.0000000000000E+00  0.0000000000000E+00  0.0000000000000E+00  0.0000000000000E+00  0.0000000000000E+00  0.0000000000000E+00  0.0000000000000E+00 
 0.0000000000000E+00  0.0000000000000E+00  0.0000000000000E+00  0.0000000000000E+00  0.0000000000000E+00  0.0000000000000E+00  0.0000000000000E+00  0.0000000000000E+00  0.0000000000000E+00  0.0000000000000E+00 
ZONE T = "ANOD, 4.0000E-08", I = 10, SOLUTIONTIME = 4.000000E-08
ZONETYPE = ORDERED
DATAPACKING = BLOCK
STRANDID = 1
 0.0000000000000E+00  8.7488888888889E-05  1.7497777777778E-04  2.6246666666667E-04  3.4995555555556E-04  4.3744444444444E-04  5.2493333333333E-04  6.1242222222222E-04  6.9991111111111E-04  7.8740000000000E-04 
 1.1593607254964E-09  3.4777211764255E-09  5.7964534732138E-09  8.1152008386297E-09  1.0432153664579E-08  1.2749497628038E-08  1.5065786328801E-08  1.7383931859499E-08  1.9702124612435E-08  2.0861247815599E-08 
 9.1999999999721E-01  9.1999999999721E-01  9.1999999999721E-01  9.1999999999721E-01  9.1999999999721E-01  9.1999999999721E-01  9.1999999999721E-01  9.1999999999721E-01  9.1999999999721E-01  9.1999999999885E-01 
 4.0000000001393E-02  4.0000000001393E-02  4.0000000001393E-02  4.0000000001393E-02  4.0000000001393E-02  4.0000000001393E-02  4.0000000001393E-02  4.0000000001393E-02  4.0000000001393E-02  4.0000000000576E-02 
 4.0000000001393E-02  4.0000000001393E-02  4.0000000001393E-02  4.0000000001393E-02  4.0000000001393E-02  4.0000000001393E-02  4.0000000001393E-02  4.0000000001393E-02  4.0000000001393E-02  4.0000000000576E-02 
 2.9167373665139E-02  2.9167357937954E-02  2.9167310756367E-02  2.9167232120263E-02  2.9167122029435E-02  2.9166980483594E-02  2.9166807482359E-02  2.9166603025264E-02  2.9166367111756E-02  2.9166099741194E-02 
 0.0000000000000E+00 -4.7371510661262E-09 -8.9170107926417E-09 -1.2539577102773E-08 -1.5604846373730E-08 -1.8112813436697E-08 -2.0063471576814E-08 -2.1456812533156E-08 -2.2292826498707E-08 -2.2571502120328E-08 
-2.9167373665139E-02 -2.9167362675105E-02 -2.9167319673378E-02 -2.9167244659840E-02 -2.9167137634282E-02 -2.9166998596407E-02 -2.9166827545830E-02 -2.9166624482077E-02 -2.9166389404583E-02 -2.9166122312696E-02 
-4.0906712751392E-02 -4.0906712751394E-02 -4.0906712751392E-02 -4.0906712751392E-02 -4.0906712751394E-02 -4.0906712751392E-02 -4.0906712751391E-02 -4.0906712751392E-02 -4.0906712751392E-02 -4.0906712751917E-02 
 1.1739339086253E-02  1.1739350076289E-02  1.1739393078014E-02  1.1739468091552E-02  1.1739575117112E-02  1.1739714154985E-02  1.1739885205561E-02  1.1740088269316E-02  1.1740323346810E-02  1.1740590439221E-02 
 1.6690487381747E+00  3.3381006555617E+00  3.3381130951590E+00  3.3381347951829E+00  3.3381657557027E+00  3.3382059768151E+00  3.3382554586516E+00  3.3383142013675E+00  3.3383822051521E+00  1.6692297351553E+00 