TITLE = "Solution on Domain BulkDomain1D_0"
VARIABLES = "x [m]"  
"Vel_axial" 
"MF_sp(ECDMC)" 
"MF_sp(Li+)" 
"MF_sp(PF6-)" 
"Volt(Electroly)" 
"Volt(AnodeVolt)" 
"Potential Drop Electrode-Electrolyte [V]" 
"Surf_0 Equilibrium Potential Drop Electrode-Electrolyte [V]" 
"Overpotential_0 [V]" 
"Current Source [A/m^2]" 
"Li+ flux [kmol/m^2/s]" 
"Electrolyte Current [A/m^2]" 
"Electrode Current [A/m^2]" 
"CV Capacity discharged [A-s/m^2]" 
"Depth of discharge in CV [A-s/m^2]" 
"CV Capacity remaining [A-s/m^2]" 
"Initial CV capacity [A-s/m^2]" 
"Porosity []" 
"Surface Area [m2/m2] (area per area)" 
"Specific current (per particle area) [A/m^2]" 
"Control volume thickness [m]" 
"MoleDens Li_C6-bulk [kmol/m^3]" 
"MoleDens V_C6-bulk [kmol/m^3]" 
"qHeat_accum [J/m3]" 
"qHeat_step [W/m3]" 
"Joule_Lyte [W/m3]" 
"Joule_Solid [W/m3]" 
"electrodHeat [W/m3]" 
"OverpotHeat [W/m3]" 
"deltaSHeat [W/m3]" 

ZONE T = "ANOD, 0.0000E+00", I = 10, SOLUTIONTIME = 0.000000E+00
ZONETYPE = ORDERED
DATAPACKING = BLOCK
STRANDID = 1
 0.0000000000000E+00  8.7488888888889E-05  1.7497777777778E-04  2.6246666666667E-04  3.4995555555556E-04  4.3744444444444E-04  5.2493333333333E-04  6.1242222222222E-04  6.9991111111111E-04  7.8740000000000E-04 
 0.0000000000000E+00  0.0000000000000E+00  0.0000000000000E+00  0.0000000000000E+00  0.0000000000000E+00  0.0000000000000E+00  0.0000000000000E+00  0.0000000000000E+00  0.0000000000000E+00  0.0000000000000E+00 
 9.2000000000000E-01  9.2000000000000E-01  9.2000000000000E-01  9.2000000000000E-01  9.2000000000000E-01  9.2000000000000E-01  9.2000000000000E-01  9.2000000000000E-01  9.2000000000000E-01  9.2000000000000E-01 
 4.0000000000000E-02  4.0000000000000E-02  4.0000000000000E-02  4.0000000000000E-02  4.0000000000000E-02  4.0000000000000E-02  4.0000000000000E-02  4.0000000000000E-02  4.0000000000000E-02  4.0000000000000E-02 
 4.0000000000000E-02  4.0000000000000E-02  4.0000000000000E-02  4.0000000000000E-02  4.0000000000000E-02  4.0000000000000E-02  4.0000000000000E-02  4.0000000000000E-02  4.0000000000000E-02  4.0000000000000E-02 
-7.0000000000000E-02 -7.0000000000000E-02 -7.0000000000000E-02 -7.0000000000000E-02 -7.0000000000000E-02 -7.0000000000000E-02 -7.0000000000000E-02 -7.0000000000000E-02 -7.0000000000000E-02 -7.0000000000000E-02 
 0.0000000000000E+00  0.0000000000000E+00  0.0000000000000E+00  0.0000000000000E+00  0.0000000000000E+00  0.0000000000000E+00  0.0000000000000E+00  0.0000000000000E+00  0.0000000000000E+00  0.0000000000000E+00 
 7.0000000000000E-02  7.0000000000000E-02  7.0000000000000E-02  7.0000000000000E-02  7.0000000000000E-02  7.0000000000000E-02  7.0000000000000E-02  7.0000000000000E-02  7.0000000000000E-02  7.0000000000000E-02 
-4.0906712753392E-02 -4.0906712753392E-02 -4.0906712753392E-02 -4.0906712753392E-02 -4.0906712753392E-02 -4.0906712753392E-02 -4.0906712753392E-02 -4.0906712753392E-02 -4.0906712753392E-02 -4.0906712753392E-02 
 1.1090671275339E-01  1.1090671275339E-01  1.1090671275339E-01  1.1090671275339E-01  1.1090671275339E-01  1.1090671275339E-01  1.1090671275339E-01  1.1090671275339E-01  1.1090671275339E-01  1.1090671275339E-01 
 3.0930240924008E+01  6.1860481848016E+01  6.1860481848016E+01  6.1860481848016E+01  6.1860481848016E+01  6.1860481848016E+01  6.1860481848016E+01  6.1860481848016E+01  6.1860481848016E+01  3.0930240924008E+01 
-0.0000000000000E+00 -0.0000000000000E+00 -0.0000000000000E+00 -0.0000000000000E+00 -0.0000000000000E+00 -0.0000000000000E+00 -0.0000000000000E+00 -0.0000000000000E+00 -0.0000000000000E+00 -0.0000000000000E+00 
 0.0000000000000E+00  0.0000000000000E+00  0.0000000000000E+00  0.0000000000000E+00  0.0000000000000E+00  0.0000000000000E+00  0.0000000000000E+00  0.0000000000000E+00  0.0000000000000E+00  3.0930240924008E+01 
 3.0930240924008E+01 -0.0000000000000E+00 -0.0000000000000E+00 -0.0000000000000E+00 -0.0000000000000E+00 -0.0000000000000E+00 -0.0000000000000E+00 -0.0000000000000E+00 -0.0000000000000E+00  0.0000000000000E+00 
 0.0000000000000E+00  0.0000000000000E+00  0.0000000000000E+00  0.0000000000000E+00  0.0000000000000E+00  0.0000000000000E+00  0.0000000000000E+00  0.0000000000000E+00  0.0000000000000E+00  0.0000000000000E+00 
 9.1448444543281E+04  1.8289688908656E+05  1.8289688908656E+05  1.8289688908656E+05  1.8289688908656E+05  1.8289688908656E+05  1.8289688908656E+05  1.8289688908656E+05  1.8289688908656E+05  9.1448444543281E+04 
 3.6579377817312E+05  7.3158755634625E+05  7.3158755634625E+05  7.3158755634625E+05  7.3158755634625E+05  7.3158755634625E+05  7.3158755634625E+05  7.3158755634625E+05  7.3158755634625E+05  3.6579377817312E+05 
 4.5724222271640E+05  9.1448444543281E+05  9.1448444543281E+05  9.1448444543281E+05  9.1448444543281E+05  9.1448444543281E+05  9.1448444543281E+05  9.1448444543281E+05  9.1448444543281E+05  4.5724222271640E+05 
 3.5000000000000E-01  3.5000000000000E-01  3.5000000000000E-01  3.5000000000000E-01  3.5000000000000E-01  3.5000000000000E-01  3.5000000000000E-01  3.5000000000000E-01  3.5000000000000E-01  3.5000000000000E-01 
 8.5301666666666E+00  1.7060333333333E+01  1.7060333333333E+01  1.7060333333333E+01  1.7060333333333E+01  1.7060333333333E+01  1.7060333333333E+01  1.7060333333333E+01  1.7060333333333E+01  8.5301666666666E+00 
 3.6259831879809E+00  3.6259831879809E+00  3.6259831879809E+00  3.6259831879809E+00  3.6259831879809E+00  3.6259831879809E+00  3.6259831879809E+00  3.6259831879809E+00  3.6259831879809E+00  3.6259831879809E+00 
 4.3744444444444E-05  8.7488888888889E-05  8.7488888888889E-05  8.7488888888889E-05  8.7488888888889E-05  8.7488888888889E-05  8.7488888888889E-05  8.7488888888889E-05  8.7488888888889E-05  4.3744444444444E-05 
 8.6666666666666E+01  8.6666666666666E+01  8.6666666666666E+01  8.6666666666666E+01  8.6666666666666E+01  8.6666666666666E+01  8.6666666666666E+01  8.6666666666666E+01  8.6666666666666E+01  8.6666666666666E+01 
 2.1666666666667E+01  2.1666666666667E+01  2.1666666666667E+01  2.1666666666667E+01  2.1666666666667E+01  2.1666666666667E+01  2.1666666666667E+01  2.1666666666667E+01  2.1666666666667E+01  2.1666666666667E+01 
 0.0000000000000E+00  0.0000000000000E+00  0.0000000000000E+00  0.0000000000000E+00  0.0000000000000E+00  0.0000000000000E+00  0.0000000000000E+00  0.0000000000000E+00  0.0000000000000E+00  0.0000000000000E+00 
 0.0000000000000E+00  0.0000000000000E+00  0.0000000000000E+00  0.0000000000000E+00  0.0000000000000E+00  0.0000000000000E+00  0.0000000000000E+00  0.0000000000000E+00  0.0000000000000E+00  0.0000000000000E+00 
 0.0000000000000E+00  0.0000000000000E+00  0.0000000000000E+00  0.0000000000000E+00  0.0000000000000E+00  0.0000000000000E+00  0.0000000000000E+00  0.0000000000000E+00  0.0000000000000E+00  0.0000000000000E+00 
 0.0000000000000E+00  0.0000000000000E+00  0.0000000000000E+00  0.0000000000000E+00  0.0000000000000E+00  0.0000000000000E+00  0.0000000000000E+00  0.0000000000000E+00  0.0000000000000E+00  0.0000000000000E+00 
 0.0000000000000E+00  0.0000000000000E+00  0.0000000000000E+00  0.0000000000000E+00  0.0000000000000E+00  0.0000000000000E+00  0.0000000000000E+00  0.0000000000000E+00  0.0000000000000E+00  0.0000000000000E+00 
 0.0000000000000E+00  0.0000000000000E+00  0.0000000000000E+00  0.0000000000000E+00  0.0000000000000E+00  0.0000000000000E+00  0.0000000000000E+00  0.0000000000000E+00  0.0000000000000E+00  0.0000000000000E+00 
 0.0000000000000E+00  0.0000000000000E+00  0.0000000000000E+00  0.0000000000000E+00  0.0000000000000E+00  0.0000000000000E+00  0.0000000000000E+00  0.0000000000000E+00  0.0000000000000E+00  0.0000000000000E+00 
ZONE T = "ANOD, 1.0000E-08", I = 10, SOLUTIONTIME = 1.000000E-08
ZONETYPE = ORDERED
DATAPACKING = BLOCK
STRANDID = 1
 0.0000000000000E+00  8.7488888888889E-05  1.7497777777778E-04  2.6246666666667E-04  3.4995555555556E-04  4.3744444444444E-04  5.2493333333333E-04  6.1242222222222E-04  6.9991111111111E-04  7.8740000000000E-04 
 1.1589860993403E-09  3.4762340908579E-09  5.7938539284268E-09  8.1114888342617E-09  1.0428782031649E-08  1.2746466366713E-08  1.5064185062566E-08  1.7381581342070E-08  1.9699024844097E-08  2.0857410214043E-08 
 9.1999999999930E-01  9.1999999999930E-01  9.1999999999930E-01  9.1999999999930E-01  9.1999999999930E-01  9.1999999999930E-01  9.1999999999930E-01  9.1999999999930E-01  9.1999999999930E-01  9.1999999999967E-01 
 4.0000000000348E-02  4.0000000000348E-02  4.0000000000348E-02  4.0000000000348E-02  4.0000000000348E-02  4.0000000000348E-02  4.0000000000348E-02  4.0000000000348E-02  4.0000000000348E-02  4.0000000000167E-02 
 4.0000000000348E-02  4.0000000000348E-02  4.0000000000348E-02  4.0000000000348E-02  4.0000000000348E-02  4.0000000000348E-02  4.0000000000348E-02  4.0000000000348E-02  4.0000000000348E-02  4.0000000000167E-02 
 2.9167411314316E-02  2.9167395587285E-02  2.9167348406163E-02  2.9167269770833E-02  2.9167159681091E-02  2.9167018136644E-02  2.9166845137113E-02  2.9166640682032E-02  2.9166404770848E-02  2.9166137402921E-02 
 0.0000000000000E+00 -4.7371043989183E-09 -8.9169229485648E-09 -1.2539453572085E-08 -1.5604692646778E-08 -1.8112635003833E-08 -2.0063273928318E-08 -2.1456601159235E-08 -2.2292606889582E-08 -2.2571279766153E-08 
-2.9167411314316E-02 -2.9167400324389E-02 -2.9167357323086E-02 -2.9167282310287E-02 -2.9167175285783E-02 -2.9167036249279E-02 -2.9166865200387E-02 -2.9166662138633E-02 -2.9166427063455E-02 -2.9166159974200E-02 
-4.0906712752892E-02 -4.0906712752896E-02 -4.0906712752892E-02 -4.0906712752892E-02 -4.0906712752892E-02 -4.0906712752896E-02 -4.0906712752896E-02 -4.0906712752892E-02 -4.0906712752892E-02 -4.0906712753008E-02 
 1.1739301438576E-02  1.1739312428506E-02  1.1739355429805E-02  1.1739430442605E-02  1.1739537467108E-02  1.1739676503618E-02  1.1739847552510E-02  1.1740050614258E-02  1.1740285689436E-02  1.1740552778808E-02 
 1.6690432927529E+00  3.3380897646857E+00  3.3381022041590E+00  3.3381239039655E+00  3.3381548641745E+00  3.3381950848844E+00  3.3382445662245E+00  3.3383033083530E+00  3.3383713114566E+00  1.6692242878764E+00 
 8.6491499950274E-09  2.5947466460641E-08  4.3245847397634E-08  6.0544340780665E-08  7.7842994602606E-08  9.5141856861180E-08  1.1244097554408E-07  1.2974039864172E-07  1.4704023808661E-07  1.4704023808661E-07 
 0.0000000000000E+00  3.3380661793054E+00  6.6761401685857E+00  1.0014231227585E+01  1.3352348616416E+01  1.6690501596478E+01  2.0028699428438E+01  2.3366951372774E+01  2.6705266690489E+01  3.0043665638165E+01 
 3.0043665641161E+01  2.6705588463826E+01  2.3367514474621E+01  2.0029423415626E+01  1.6691306026643E+01  1.3353153046645E+01  1.0014955214736E+01  6.6767032703761E+00  3.3383879526030E+00  0.0000000000000E+00 
 1.6690432927529E-08  3.3380897646857E-08  3.3381022041590E-08  3.3381239039655E-08  3.3381548641745E-08  3.3381950848844E-08  3.3382445662245E-08  3.3383033083530E-08  3.3383713114566E-08  1.6692242878764E-08 
 9.1448444543298E+04  1.8289688908659E+05  1.8289688908660E+05  1.8289688908660E+05  1.8289688908660E+05  1.8289688908660E+05  1.8289688908660E+05  1.8289688908660E+05  1.8289688908660E+05  9.1448444543298E+04 
 3.6579377817311E+05  7.3158755634621E+05  7.3158755634621E+05  7.3158755634621E+05  7.3158755634621E+05  7.3158755634621E+05  7.3158755634621E+05  7.3158755634621E+05  7.3158755634621E+05  3.6579377817311E+05 
 4.5724222271640E+05  9.1448444543281E+05  9.1448444543281E+05  9.1448444543281E+05  9.1448444543281E+05  9.1448444543281E+05  9.1448444543281E+05  9.1448444543281E+05  9.1448444543281E+05  4.5724222271640E+05 
 3.5000000000000E-01  3.5000000000000E-01  3.5000000000000E-01  3.5000000000000E-01  3.5000000000000E-01  3.5000000000000E-01  3.5000000000000E-01  3.5000000000000E-01  3.5000000000000E-01  3.5000000000000E-01 
 8.5301666666666E+00  1.7060333333333E+01  1.7060333333333E+01  1.7060333333333E+01  1.7060333333333E+01  1.7060333333333E+01  1.7060333333333E+01  1.7060333333333E+01  1.7060333333333E+01  8.5301666666666E+00 
 1.9566362041612E-01  1.9566380676535E-01  1.9566453591131E-01  1.9566580785636E-01  1.9566762260455E-01  1.9566998016164E-01  1.9567288053523E-01  1.9567632373457E-01  1.9568030977062E-01  1.9568483865611E-01 
 4.3744444444444E-05  8.7488888888889E-05  8.7488888888889E-05  8.7488888888889E-05  8.7488888888889E-05  8.7488888888889E-05  8.7488888888889E-05  8.7488888888889E-05  8.7488888888889E-05  4.3744444444444E-05 
 8.6666666666662E+01  8.6666666666662E+01  8.6666666666662E+01  8.6666666666662E+01  8.6666666666662E+01  8.6666666666662E+01  8.6666666666662E+01  8.6666666666662E+01  8.6666666666662E+01  8.6666666666662E+01 
 2.1666666666671E+01  2.1666666666671E+01  2.1666666666671E+01  2.1666666666671E+01  2.1666666666671E+01  2.1666666666671E+01  2.1666666666671E+01  2.1666666666671E+01  2.1666666666671E+01  2.1666666666671E+01 
 1.8363757076932E-11  2.8663715418822E-11  6.1477420631917E-11  1.1871895272148E-10  2.0038894687258E-10  3.0648830937593E-10  4.3701821759334E-10  5.9198011997716E-10  7.7137573610554E-10  8.6718220449692E-10 
 1.8363757076932E-03  2.8663715418822E-03  6.1477420631917E-03  1.1871895272148E-02  2.0038894687258E-02  3.0648830937593E-02  4.3701821759334E-02  5.9198011997716E-02  7.7137573610554E-02  8.6718220449692E-02 
 3.0002577741811E-04  1.5001306018615E-03  5.1004568280844E-03  1.1101041277451E-02  1.9501947405963E-02  3.0303265308333E-02  4.3505111714430E-02  5.9107629991211E-02  7.7110990146253E-02  8.6712903609168E-02 
 1.5363499302751E-03  1.3662409400207E-03  1.0472852351073E-03  7.7085399469661E-04  5.3694728129509E-04  3.4556562926011E-04  1.9671004490353E-04  9.0382006504879E-05  2.6583464301053E-05  5.3168405243765E-06 
 0.0000000000000E+00  0.0000000000000E+00  0.0000000000000E+00  0.0000000000000E+00  0.0000000000000E+00  0.0000000000000E+00  0.0000000000000E+00  0.0000000000000E+00  0.0000000000000E+00  0.0000000000000E+00 
 0.0000000000000E+00  0.0000000000000E+00  0.0000000000000E+00  0.0000000000000E+00  0.0000000000000E+00  0.0000000000000E+00  0.0000000000000E+00  0.0000000000000E+00  0.0000000000000E+00  0.0000000000000E+00 
 0.0000000000000E+00  0.0000000000000E+00  0.0000000000000E+00  0.0000000000000E+00  0.0000000000000E+00  0.0000000000000E+00  0.0000000000000E+00  0.0000000000000E+00  0.0000000000000E+00  0.0000000000000E+00 
ZONE T = "ANOD, 2.0000E-08", I = 10, SOLUTIONTIME = 2.000000E-08
ZONETYPE = ORDERED
DATAPACKING = BLOCK
STRANDID = 1
 0.0000000000000E+00  8.7488888888889E-05  1.7497777777778E-04  2.6246666666667E-04  3.4995555555556E-04  4.3744444444444E-04  5.2493333333333E-04  6.1242222222222E-04  6.9991111111111E-04  7.8740000000000E-04 
 1.1589934535691E-09  3.4769825683629E-09  5.7949803212567E-09  8.1129931427226E-09  1.0431027463281E-08  1.2749089713520E-08  1.5067186324118E-08  1.7385323725862E-08  1.9703508349671E-08  2.0862627488151E-08 
 9.1999999999861E-01  9.1999999999861E-01  9.1999999999861E-01  9.1999999999861E-01  9.1999999999861E-01  9.1999999999861E-01  9.1999999999861E-01  9.1999999999861E-01  9.1999999999861E-01  9.1999999999933E-01 
 4.0000000000696E-02  4.0000000000696E-02  4.0000000000696E-02  4.0000000000696E-02  4.0000000000696E-02  4.0000000000696E-02  4.0000000000696E-02  4.0000000000696E-02  4.0000000000696E-02  4.0000000000334E-02 
 4.0000000000696E-02  4.0000000000696E-02  4.0000000000696E-02  4.0000000000696E-02  4.0000000000696E-02  4.0000000000696E-02  4.0000000000696E-02  4.0000000000696E-02  4.0000000000696E-02  4.0000000000334E-02 
 2.9167414130183E-02  2.9167398403053E-02  2.9167351221632E-02  2.9167272585803E-02  2.9167162495362E-02  2.9167020950017E-02  2.9166847949388E-02  2.9166643493010E-02  2.9166407580330E-02  2.9166140210705E-02 
 0.0000000000000E+00 -4.7371344545548E-09 -8.9169795237252E-09 -1.2539533130745E-08 -1.5604791652838E-08 -1.8112749921207E-08 -2.0063401221017E-08 -2.1456737291374E-08 -2.2292748325297E-08 -2.2571422969689E-08 
-2.9167414130183E-02 -2.9167403140188E-02 -2.9167360138612E-02 -2.9167285125336E-02 -2.9167178100154E-02 -2.9167039062767E-02 -2.9166868012789E-02 -2.9166664949748E-02 -2.9166429873078E-02 -2.9166162782128E-02 
-4.0906712752388E-02 -4.0906712752390E-02 -4.0906712752388E-02 -4.0906712752388E-02 -4.0906712752391E-02 -4.0906712752390E-02 -4.0906712752390E-02 -4.0906712752390E-02 -4.0906712752390E-02 -4.0906712752623E-02 
 1.1739298622205E-02  1.1739309612203E-02  1.1739352613777E-02  1.1739427627052E-02  1.1739534652237E-02  1.1739673689624E-02  1.1739844739601E-02  1.1740047802643E-02  1.1740282879312E-02  1.1740549970494E-02 
 1.6690428854037E+00  3.3380889500074E+00  3.3381013895595E+00  3.3381230895035E+00  3.3381540499086E+00  3.3381942708742E+00  3.3382437525272E+00  3.3383024950270E+00  3.3383704985612E+00  1.6692238816864E+00 
 8.6492048756439E-09  2.5947631103531E-08  4.3246121800543E-08  6.0544724943246E-08  7.7843488527114E-08  9.5142460543798E-08  1.1244168898099E-07  1.2974122183518E-07  1.4704123497921E-07  1.4704123497921E-07 
 0.0000000000000E+00  3.3380873603224E+00  6.6761825300674E+00  1.0014294769716E+01  1.3352433339379E+01  1.6690607499906E+01  2.0028826511594E+01  2.3367099635291E+01  2.6705436132149E+01  3.0043845263099E+01 
 3.0043845263059E+01  2.6705757902651E+01  2.3367662732868E+01  2.0029550493336E+01  1.6691411923630E+01  1.3353237763239E+01  1.0015018751538E+01  6.6767456277611E+00  3.3384091309670E+00  0.0000000000000E+00 
 3.3380861781566E-08  6.6761787146931E-08  6.6762035937185E-08  6.6762469934689E-08  6.6763089140831E-08  6.6763893557585E-08  6.6764883187518E-08  6.6766058033800E-08  6.6767418100179E-08  3.3384481695628E-08 
 9.1448444543314E+04  1.8289688908663E+05  1.8289688908663E+05  1.8289688908663E+05  1.8289688908663E+05  1.8289688908663E+05  1.8289688908663E+05  1.8289688908663E+05  1.8289688908663E+05  9.1448444543314E+04 
 3.6579377817309E+05  7.3158755634618E+05  7.3158755634618E+05  7.3158755634618E+05  7.3158755634618E+05  7.3158755634618E+05  7.3158755634618E+05  7.3158755634618E+05  7.3158755634618E+05  3.6579377817309E+05 
 4.5724222271640E+05  9.1448444543281E+05  9.1448444543281E+05  9.1448444543281E+05  9.1448444543281E+05  9.1448444543281E+05  9.1448444543281E+05  9.1448444543281E+05  9.1448444543281E+05  4.5724222271640E+05 
 3.5000000000000E-01  3.5000000000000E-01  3.5000000000000E-01  3.5000000000000E-01  3.5000000000000E-01  3.5000000000000E-01  3.5000000000000E-01  3.5000000000000E-01  3.5000000000000E-01  3.5000000000000E-01 
 8.5301666666666E+00  1.7060333333333E+01  1.7060333333333E+01  1.7060333333333E+01  1.7060333333333E+01  1.7060333333333E+01  1.7060333333333E+01  1.7060333333333E+01  1.7060333333333E+01  8.5301666666666E+00 
 1.9566357266217E-01  1.9566375901257E-01  1.9566448816316E-01  1.9566576011626E-01  1.9566757487595E-01  1.9566993244803E-01  1.9567283283995E-01  1.9567627606106E-01  1.9568026212235E-01  1.9568479103805E-01 
 4.3744444444444E-05  8.7488888888889E-05  8.7488888888889E-05  8.7488888888889E-05  8.7488888888889E-05  8.7488888888889E-05  8.7488888888889E-05  8.7488888888889E-05  8.7488888888889E-05  4.3744444444444E-05 
 8.6666666666658E+01  8.6666666666658E+01  8.6666666666658E+01  8.6666666666658E+01  8.6666666666658E+01  8.6666666666658E+01  8.6666666666658E+01  8.6666666666658E+01  8.6666666666658E+01  8.6666666666658E+01 
 2.1666666666674E+01  2.1666666666674E+01  2.1666666666674E+01  2.1666666666674E+01  2.1666666666674E+01  2.1666666666674E+01  2.1666666666674E+01  2.1666666666674E+01  2.1666666666674E+01  2.1666666666674E+01 
 3.6727747185067E-11  5.7327794580813E-11  1.2295562142700E-10  2.3743941202401E-10  4.0078043674849E-10  6.1298050817135E-10  8.7404198100120E-10  1.1839677521556E-09  1.5427612608014E-09  1.7343754132776E-09 
 1.8363990108135E-03  2.8664079161991E-03  6.1478200795080E-03  1.1872045930253E-02  2.0039148987590E-02  3.0649219879542E-02  4.3702376340786E-02  5.9198763217848E-02  7.7138552469583E-02  8.6719320878064E-02 
 6.0005536245133E-04  3.0002802412137E-03  1.0200978383162E-02  2.2202223431525E-02  3.9004142298971E-02  6.0606915173842E-02  8.7010775514369E-02  1.1821601005577E-01  1.5422295881425E-01  1.7342690757925E-01 
 3.0727193560554E-03  2.7324992168676E-03  2.0945837595371E-03  1.5417177708765E-03  1.0739013758780E-03  6.9113564329310E-04  3.9342258575140E-04  1.8076515979409E-04  5.3167265890111E-05  1.0633748506044E-05 
 0.0000000000000E+00  0.0000000000000E+00  0.0000000000000E+00  0.0000000000000E+00  0.0000000000000E+00  0.0000000000000E+00  0.0000000000000E+00  0.0000000000000E+00  0.0000000000000E+00  0.0000000000000E+00 
 0.0000000000000E+00  0.0000000000000E+00  0.0000000000000E+00  0.0000000000000E+00  0.0000000000000E+00  0.0000000000000E+00  0.0000000000000E+00  0.0000000000000E+00  0.0000000000000E+00  0.0000000000000E+00 
 0.0000000000000E+00  0.0000000000000E+00  0.0000000000000E+00  0.0000000000000E+00  0.0000000000000E+00  0.0000000000000E+00  0.0000000000000E+00  0.0000000000000E+00  0.0000000000000E+00  0.0000000000000E+00 
ZONE T = "ANOD, 3.0000E-08", I = 10, SOLUTIONTIME = 3.000000E-08
ZONETYPE = ORDERED
DATAPACKING = BLOCK
STRANDID = 1
 0.0000000000000E+00  8.7488888888889E-05  1.7497777777778E-04  2.6246666666667E-04  3.4995555555556E-04  4.3744444444444E-04  5.2493333333333E-04  6.1242222222222E-04  6.9991111111111E-04  7.8740000000000E-04 
 1.1586302458212E-09  3.4766193605752E-09  5.7946171134288E-09  8.1126299348545E-09  1.0430664255373E-08  1.2748726505572E-08  1.5066823116130E-08  1.7385686933290E-08  1.9704597972515E-08  2.0863717110984E-08 
 9.1999999999791E-01  9.1999999999791E-01  9.1999999999791E-01  9.1999999999791E-01  9.1999999999791E-01  9.1999999999791E-01  9.1999999999791E-01  9.1999999999791E-01  9.1999999999791E-01  9.1999999999900E-01 
 4.0000000001045E-02  4.0000000001045E-02  4.0000000001045E-02  4.0000000001045E-02  4.0000000001045E-02  4.0000000001045E-02  4.0000000001045E-02  4.0000000001045E-02  4.0000000001045E-02  4.0000000000502E-02 
 4.0000000001045E-02  4.0000000001045E-02  4.0000000001045E-02  4.0000000001045E-02  4.0000000001045E-02  4.0000000001045E-02  4.0000000001045E-02  4.0000000001045E-02  4.0000000001045E-02  4.0000000000502E-02 
 2.9167414129972E-02  2.9167398402842E-02  2.9167351221421E-02  2.9167272585592E-02  2.9167162495151E-02  2.9167020949805E-02  2.9166847949177E-02  2.9166643492799E-02  2.9166407580118E-02  2.9166140210494E-02 
 0.0000000000000E+00 -4.7371344544754E-09 -8.9169795235759E-09 -1.2539533130535E-08 -1.5604791652578E-08 -1.8112749920906E-08 -2.0063401220685E-08 -2.1456737291020E-08 -2.2292748324930E-08 -2.2571422969320E-08 
-2.9167414129972E-02 -2.9167403139976E-02 -2.9167360138400E-02 -2.9167285125125E-02 -2.9167178099942E-02 -2.9167039062555E-02 -2.9166868012578E-02 -2.9166664949536E-02 -2.9166429872867E-02 -2.9166162781917E-02 
-4.0906712751892E-02 -4.0906712751891E-02 -4.0906712751892E-02 -4.0906712751892E-02 -4.0906712751890E-02 -4.0906712751894E-02 -4.0906712751893E-02 -4.0906712751894E-02 -4.0906712751894E-02 -4.0906712752242E-02 
 1.1739298621920E-02  1.1739309611915E-02  1.1739352613492E-02  1.1739427626767E-02  1.1739534651948E-02  1.1739673689339E-02  1.1739844739315E-02  1.1740047802358E-02  1.1740282879028E-02  1.1740549970325E-02 
 1.6690428853748E+00  3.3380889499502E+00  3.3381013895016E+00  3.3381230894455E+00  3.3381540498513E+00  3.3381942708164E+00  3.3382437524695E+00  3.3383024949699E+00  3.3383704985041E+00  1.6692238816707E+00 
 8.6492048760662E-09  2.5947631103410E-08  4.3246121799011E-08  6.0544724944120E-08  7.7843488523629E-08  9.5142460536300E-08  1.1244168898006E-07  1.2974122183024E-07  1.4704129892567E-07  1.4704129892567E-07 
 0.0000000000000E+00  3.3380873603514E+00  6.6761825301255E+00  1.0014294769435E+01  1.3352433339127E+01  1.6690607499499E+01  2.0028826511216E+01  2.3367099634942E+01  2.6705436131613E+01  3.0043845262530E+01 
 3.0043845262554E+01  2.6705757902204E+01  2.3367662732478E+01  2.0029550493004E+01  1.6691411923356E+01  1.3353237763022E+01  1.0015018751379E+01  6.6767456276597E+00  3.3384091309227E+00  0.0000000000000E+00 
 5.0071290635314E-08  1.0014267664643E-07  1.0014304983220E-07  1.0014370082914E-07  1.0014462963934E-07  1.0014583626575E-07  1.0014732071221E-07  1.0014908298350E-07  1.0015112308522E-07  5.0076720512335E-08 
 9.1448444543331E+04  1.8289688908666E+05  1.8289688908666E+05  1.8289688908666E+05  1.8289688908666E+05  1.8289688908666E+05  1.8289688908666E+05  1.8289688908666E+05  1.8289688908666E+05  9.1448444543331E+04 
 3.6579377817307E+05  7.3158755634615E+05  7.3158755634615E+05  7.3158755634615E+05  7.3158755634615E+05  7.3158755634615E+05  7.3158755634615E+05  7.3158755634615E+05  7.3158755634615E+05  3.6579377817307E+05 
 4.5724222271640E+05  9.1448444543281E+05  9.1448444543281E+05  9.1448444543281E+05  9.1448444543281E+05  9.1448444543281E+05  9.1448444543281E+05  9.1448444543281E+05  9.1448444543281E+05  4.5724222271640E+05 
 3.5000000000000E-01  3.5000000000000E-01  3.5000000000000E-01  3.5000000000000E-01  3.5000000000000E-01  3.5000000000000E-01  3.5000000000000E-01  3.5000000000000E-01  3.5000000000000E-01  3.5000000000000E-01 
 8.5301666666666E+00  1.7060333333333E+01  1.7060333333333E+01  1.7060333333333E+01  1.7060333333333E+01  1.7060333333333E+01  1.7060333333333E+01  1.7060333333333E+01  1.7060333333333E+01  8.5301666666666E+00 
 1.9566357265877E-01  1.9566375900922E-01  1.9566448815976E-01  1.9566576011286E-01  1.9566757487259E-01  1.9566993244464E-01  1.9567283283657E-01  1.9567627605771E-01  1.9568026211899E-01  1.9568479103621E-01 
 4.3744444444444E-05  8.7488888888889E-05  8.7488888888889E-05  8.7488888888889E-05  8.7488888888889E-05  8.7488888888889E-05  8.7488888888889E-05  8.7488888888889E-05  8.7488888888889E-05  4.3744444444444E-05 
 8.6666666666654E+01  8.6666666666654E+01  8.6666666666654E+01  8.6666666666654E+01  8.6666666666654E+01  8.6666666666654E+01  8.6666666666654E+01  8.6666666666654E+01  8.6666666666654E+01  8.6666666666654E+01 
 2.1666666666678E+01  2.1666666666678E+01  2.1666666666678E+01  2.1666666666678E+01  2.1666666666678E+01  2.1666666666678E+01  2.1666666666678E+01  2.1666666666678E+01  2.1666666666678E+01  2.1666666666678E+01 
 5.5091737291389E-11  8.5991873743801E-11  1.8443382222085E-10  3.5615987131931E-10  6.0117192661532E-10  9.1947270694878E-10  1.3110657443896E-09  1.7759553843108E-09  2.3141467854606E-09  2.6015686220188E-09 
 1.8363990106322E-03  2.8664079162988E-03  6.1478200793850E-03  1.1872045929530E-02  2.0039148986684E-02  3.0649219877743E-02  4.3702376338842E-02  5.9198763215513E-02  7.7138552465919E-02  8.6719320874122E-02 
 9.0008494735479E-04  4.5004298807114E-03  1.5301499938153E-02  3.3303405584901E-02  5.8506337191089E-02  9.0910565037563E-02  1.3051643931237E-01  1.7732439011800E-01  2.3133492747858E-01  2.6014091154539E-01 
 4.6090887817841E-03  4.0987574936687E-03  3.1418822839321E-03  2.3125815470308E-03  1.6108554704432E-03  1.0367056573149E-03  5.9013512659301E-04  2.7114831308053E-04  7.9751067478423E-05  1.5950656487611E-05 
 0.0000000000000E+00  0.0000000000000E+00  0.0000000000000E+00  0.0000000000000E+00  0.0000000000000E+00  0.0000000000000E+00  0.0000000000000E+00  0.0000000000000E+00  0.0000000000000E+00  0.0000000000000E+00 
 0.0000000000000E+00  0.0000000000000E+00  0.0000000000000E+00  0.0000000000000E+00  0.0000000000000E+00  0.0000000000000E+00  0.0000000000000E+00  0.0000000000000E+00  0.0000000000000E+00  0.0000000000000E+00 
 0.0000000000000E+00  0.0000000000000E+00  0.0000000000000E+00  0.0000000000000E+00  0.0000000000000E+00  0.0000000000000E+00  0.0000000000000E+00  0.0000000000000E+00  0.0000000000000E+00  0.0000000000000E+00 
ZONE T = "ANOD, 4.0000E-08", I = 10, SOLUTIONTIME = 4.000000E-08
ZONETYPE = ORDERED
DATAPACKING = BLOCK
STRANDID = 1
 0.0000000000000E+00  8.7488888888889E-05  1.7497777777778E-04  2.6246666666667E-04  3.4995555555556E-04  4.3744444444444E-04  5.2493333333333E-04  6.1242222222222E-04  6.9991111111111E-04  7.8740000000000E-04 
 1.1591750573930E-09  3.4778905875614E-09  5.7951619249198E-09  8.1124483308502E-09  1.0430119443601E-08  1.2747455278304E-08  1.5065551888823E-08  1.7383689290487E-08  1.9701873914216E-08  2.0859903429491E-08 
 9.1999999999721E-01  9.1999999999721E-01  9.1999999999721E-01  9.1999999999721E-01  9.1999999999721E-01  9.1999999999721E-01  9.1999999999721E-01  9.1999999999721E-01  9.1999999999721E-01  9.1999999999866E-01 
 4.0000000001393E-02  4.0000000001393E-02  4.0000000001393E-02  4.0000000001393E-02  4.0000000001393E-02  4.0000000001393E-02  4.0000000001393E-02  4.0000000001393E-02  4.0000000001393E-02  4.0000000000669E-02 
 4.0000000001393E-02  4.0000000001393E-02  4.0000000001393E-02  4.0000000001393E-02  4.0000000001393E-02  4.0000000001393E-02  4.0000000001393E-02  4.0000000001393E-02  4.0000000001393E-02  4.0000000000669E-02 
 2.9167414129760E-02  2.9167398402629E-02  2.9167351221208E-02  2.9167272585379E-02  2.9167162494938E-02  2.9167020949593E-02  2.9166847948964E-02  2.9166643492587E-02  2.9166407579906E-02  2.9166140210282E-02 
 0.0000000000000E+00 -4.7371344543958E-09 -8.9169795234265E-09 -1.2539533130326E-08 -1.5604791652318E-08 -1.8112749920605E-08 -2.0063401220352E-08 -2.1456737290665E-08 -2.2292748324564E-08 -2.2571422968951E-08 
-2.9167414129760E-02 -2.9167403139764E-02 -2.9167360138188E-02 -2.9167285124913E-02 -2.9167178099730E-02 -2.9167039062343E-02 -2.9166868012366E-02 -2.9166664949324E-02 -2.9166429872654E-02 -2.9166162781705E-02 
-4.0906712751392E-02 -4.0906712751389E-02 -4.0906712751392E-02 -4.0906712751392E-02 -4.0906712751397E-02 -4.0906712751393E-02 -4.0906712751393E-02 -4.0906712751393E-02 -4.0906712751393E-02 -4.0906712751858E-02 
 1.1739298621632E-02  1.1739309611625E-02  1.1739352613204E-02  1.1739427626479E-02  1.1739534651667E-02  1.1739673689050E-02  1.1739844739027E-02  1.1740047802069E-02  1.1740282878738E-02  1.1740549970153E-02 
 1.6690428853462E+00  3.3380889498909E+00  3.3381013894444E+00  3.3381230893884E+00  3.3381540497941E+00  3.3381942707584E+00  3.3382437524126E+00  3.3383024949119E+00  3.3383704984461E+00  1.6692238816553E+00 