TITLE = "Solution on Domain BulkDomain1D_0"
VARIABLES = "x [m]"  
"Vel_axial(0)" 	"MF_sp(ECDMC)" 	"MF_sp(Li+)" 	"MF_sp(PF6-)" 	"Volt(Electroly)" 	"Volt(AnodeVolt)" 	
"Potential Drop Electrode-Electrolyte [V]" 	"Surf_0 Equilibrium Potential Drop Electrode-Electrolyte [V]" 	"Overpotential_0 [V]" 	"Current Source [A/m^2]" 	"Li+ flux [kmol/m^2/s]" 	"Electrolyte Current [A/m^2]" 	"Electrode Current [A/m^2]" 	
"Capacity discharged [A-s]" 	"Depth of discharge [-]" 	"Capacity remaining [A-s]" 	"Initial capacity [A-s]" 	"Porosity []" 	"Surface Area [m2/m2] (area per area)" 	"Specific current (per particle area) [A/m^2]" 	"Control volume thickness [m]" 	
"Moles Li_C6-bulk [mol/m^2] (per electrode area)" 	"Moles V_C6-bulk [mol/m^2] (per electrode area)" 	

ZONE T = "t = 0 [s]" I = 10 SOLUTIONTIME = 0.0000000000000E+00
0 	0 	0.92 	0.04 	0.04 	-0.07 	0 	
0 	0 	0 	0 	0 	0 	15.256 	
0 	0 	0 	0 	0.35 	8.53017 	3.57694 	4.37444e-05 	
0.00379119 	0.000947796 	
8.74889e-05 	0 	0.92 	0.04 	0.04 	-0.07 	0 	
0 	0 	0 	0 	0 	0 	-0 	
0 	0 	0 	0 	0.35 	17.0603 	3.57694 	8.74889e-05 	
0.00758237 	0.00189559 	
0.000174978 	0 	0.92 	0.04 	0.04 	-0.07 	0 	
0 	0 	0 	0 	0 	0 	-0 	
0 	0 	0 	0 	0.35 	17.0603 	3.57694 	8.74889e-05 	
0.00758237 	0.00189559 	
0.000262467 	0 	0.92 	0.04 	0.04 	-0.07 	0 	
0 	0 	0 	0 	0 	0 	-0 	
0 	0 	0 	0 	0.35 	17.0603 	3.57694 	8.74889e-05 	
0.00758237 	0.00189559 	
0.000349956 	0 	0.92 	0.04 	0.04 	-0.07 	0 	
0 	0 	0 	0 	0 	0 	-0 	
0 	0 	0 	0 	0.35 	17.0603 	3.57694 	8.74889e-05 	
0.00758237 	0.00189559 	
0.000437444 	0 	0.92 	0.04 	0.04 	-0.07 	0 	
0 	0 	0 	0 	0 	0 	-0 	
0 	0 	0 	0 	0.35 	17.0603 	3.57694 	8.74889e-05 	
0.00758237 	0.00189559 	
0.000524933 	0 	0.92 	0.04 	0.04 	-0.07 	0 	
0 	0 	0 	0 	0 	0 	-0 	
0 	0 	0 	0 	0.35 	17.0603 	3.57694 	8.74889e-05 	
0.00758237 	0.00189559 	
0.000612422 	0 	0.92 	0.04 	0.04 	-0.07 	0 	
0 	0 	0 	0 	0 	0 	-0 	
0 	0 	0 	0 	0.35 	17.0603 	3.57694 	8.74889e-05 	
0.00758237 	0.00189559 	
0.000699911 	0 	0.92 	0.04 	0.04 	-0.07 	0 	
0 	0 	0 	0 	0 	0 	-0 	
0 	0 	0 	0 	0.35 	17.0603 	3.57694 	8.74889e-05 	
0.00758237 	0.00189559 	
0.0007874 	0 	0.92 	0.04 	0.04 	-0.07 	0 	
0 	0 	0 	0 	0 	15.256 	0 	
0 	0 	0 	0 	0.35 	8.53017 	3.57694 	4.37444e-05 	
0.00379119 	0.000947796 	
ZONE T = "t = 1e-08 [s]" I = 10 SOLUTIONTIME = 1.0000000000000E-08
0 	1.6342e-09 	0.92 	0.04 	0.04 	0.0113434 	0 	
0.07 	-0.0409067 	0.110907 	30.5119 	-0 	1.17669 	41.1914 	
7.6472e-10 	91448.4 	916.789 	1145.99 	0.35 	8.53017 	0.277077 	4.37444e-05 	
0.00379119 	0.000947796 	
8.74889e-05 	4.90261e-09 	0.92 	0.04 	0.04 	0.0113434 	-3.5004e-09 	
0.07 	-0.0409067 	0.110907 	61.0238 	-0 	4.70676 	37.6562 	
1.52944e-09 	182897 	1833.58 	2291.97 	0.35 	17.0603 	0.277077 	8.74889e-05 	
0.00758237 	0.00189559 	
0.000174978 	8.17103e-09 	0.92 	0.04 	0.04 	0.0113433 	-6.589e-09 	
0.07 	-0.0409067 	0.110907 	61.0238 	-0 	9.41354 	32.9495 	
1.52944e-09 	182897 	1833.58 	2291.97 	0.35 	17.0603 	0.277079 	8.74889e-05 	
0.00758237 	0.00189559 	
0.000262467 	1.14395e-08 	0.92 	0.04 	0.04 	0.0113432 	-9.26582e-09 	
0.07 	-0.0409067 	0.110907 	61.0238 	-0 	14.1204 	28.2426 	
1.52944e-09 	182897 	1833.58 	2291.97 	0.35 	17.0603 	0.277082 	8.74889e-05 	
0.00758237 	0.00189559 	
0.000349956 	1.4708e-08 	0.92 	0.04 	0.04 	0.011343 	-1.15308e-08 	
0.07 	-0.0409067 	0.110907 	61.0238 	-0 	18.8272 	23.5358 	
1.52944e-09 	182897 	1833.58 	2291.97 	0.35 	17.0603 	0.277085 	8.74889e-05 	
0.00758237 	0.00189559 	
0.000437444 	1.79765e-08 	0.92 	0.04 	0.04 	0.0113428 	-1.33841e-08 	
0.07 	-0.0409067 	0.110907 	61.0238 	-0 	23.5342 	18.8288 	
1.52944e-09 	182897 	1833.58 	2291.97 	0.35 	17.0603 	0.27709 	8.74889e-05 	
0.00758237 	0.00189559 	
0.000524933 	2.12452e-08 	0.92 	0.04 	0.04 	0.0113426 	-1.48255e-08 	
0.07 	-0.0409067 	0.110907 	61.0238 	-0 	28.2412 	14.1218 	
1.52944e-09 	182897 	1833.58 	2291.97 	0.35 	17.0603 	0.277096 	8.74889e-05 	
0.00758237 	0.00189559 	
0.000612422 	2.45139e-08 	0.92 	0.04 	0.04 	0.0113423 	-1.58551e-08 	
0.07 	-0.0409067 	0.110907 	61.0238 	-0 	32.9483 	9.41467 	
1.52944e-09 	182897 	1833.58 	2291.97 	0.35 	17.0603 	0.277103 	8.74889e-05 	
0.00758237 	0.00189559 	
0.000699911 	2.77827e-08 	0.92 	0.04 	0.04 	0.011342 	-1.64728e-08 	
0.07 	-0.0409067 	0.110907 	61.0238 	-0 	37.6556 	4.70741 	
1.52944e-09 	182897 	1833.58 	2291.97 	0.35 	17.0603 	0.277111 	8.74889e-05 	
0.00758237 	0.00189559 	
0.0007874 	2.94171e-08 	0.92 	0.04 	0.04 	0.0113416 	-1.66788e-08 	
0.07 	-0.0409067 	0.110907 	30.5119 	-0 	41.1912 	1.17687 	
7.6472e-10 	91448.4 	916.789 	1145.99 	0.35 	8.53017 	0.27712 	4.37444e-05 	
0.00379119 	0.000947796 	
ZONE T = "t = 2e-08 [s]" I = 10 SOLUTIONTIME = 2.0000000000000E-08
0 	1.15991e-09 	0.92 	0.04 	0.04 	0.0291572 	0 	
-0.0113434 	-0.0409067 	0.0295633 	2.36351 	1.21955e-08 	0.835184 	29.2326 	
5.92367e-11 	91448.4 	916.789 	1145.99 	0.35 	8.53017 	0.195837 	4.37444e-05 	
0.00379119 	0.000947796 	
8.74889e-05 	3.47974e-09 	0.92 	0.04 	0.04 	0.0291572 	-2.48445e-09 	
-0.0113434 	-0.0409067 	0.0295634 	4.72703 	3.65866e-08 	3.34074 	26.727 	
1.18474e-10 	182897 	1833.58 	2291.97 	0.35 	17.0603 	0.195837 	8.74889e-05 	
0.00758237 	0.00189559 	
0.000174978 	5.79958e-09 	0.92 	0.04 	0.04 	0.0291571 	-4.67663e-09 	
-0.0113433 	-0.0409067 	0.0295634 	4.72706 	6.09778e-08 	6.68148 	23.3862 	
1.18474e-10 	182897 	1833.58 	2291.97 	0.35 	17.0603 	0.195838 	8.74889e-05 	
0.00758237 	0.00189559 	
0.000262467 	8.11943e-09 	0.92 	0.04 	0.04 	0.0291571 	-6.57652e-09 	
-0.0113432 	-0.0409067 	0.0295635 	4.7271 	8.53693e-08 	10.0222 	20.0455 	
1.18475e-10 	182897 	1833.58 	2291.97 	0.35 	17.0603 	0.195839 	8.74889e-05 	
0.00758237 	0.00189559 	
0.000349956 	1.04393e-08 	0.92 	0.04 	0.04 	0.029157 	-8.18414e-09 	
-0.011343 	-0.0409067 	0.0295637 	4.72717 	1.09761e-07 	13.363 	16.7047 	
1.18477e-10 	182897 	1833.58 	2291.97 	0.35 	17.0603 	0.195841 	8.74889e-05 	
0.00758237 	0.00189559 	
0.000437444 	1.27592e-08 	0.92 	0.04 	0.04 	0.0291568 	-9.49947e-09 	
-0.0113428 	-0.0409067 	0.0295639 	4.72725 	1.34153e-07 	16.7039 	13.3638 	
1.18479e-10 	182897 	1833.58 	2291.97 	0.35 	17.0603 	0.195843 	8.74889e-05 	
0.00758237 	0.00189559 	
0.000524933 	1.50792e-08 	0.92 	0.04 	0.04 	0.0291566 	-1.05225e-08 	
-0.0113426 	-0.0409067 	0.0295641 	4.72735 	1.58546e-07 	20.0447 	10.023 	
1.18481e-10 	182897 	1833.58 	2291.97 	0.35 	17.0603 	0.195846 	8.74889e-05 	
0.00758237 	0.00189559 	
0.000612422 	1.73991e-08 	0.92 	0.04 	0.04 	0.0291564 	-1.12533e-08 	
-0.0113423 	-0.0409067 	0.0295644 	4.72746 	1.82939e-07 	23.3857 	6.68205 	
1.18484e-10 	182897 	1833.58 	2291.97 	0.35 	17.0603 	0.19585 	8.74889e-05 	
0.00758237 	0.00189559 	
0.000699911 	1.97192e-08 	0.92 	0.04 	0.04 	0.0291562 	-1.16917e-08 	
-0.011342 	-0.0409067 	0.0295647 	4.7276 	2.07333e-07 	26.7266 	3.34106 	
1.18488e-10 	182897 	1833.58 	2291.97 	0.35 	17.0603 	0.195854 	8.74889e-05 	
0.00758237 	0.00189559 	
0.0007874 	2.08792e-08 	0.92 	0.04 	0.04 	0.0291559 	-1.18379e-08 	
-0.0113416 	-0.0409067 	0.0295651 	2.36388 	2.07333e-07 	29.2325 	0.835275 	
5.92458e-11 	91448.4 	916.789 	1145.99 	0.35 	8.53017 	0.195858 	4.37444e-05 	
0.00379119 	0.000947796 	
ZONE T = "t = 3e-08 [s]" I = 10 SOLUTIONTIME = 3.0000000000000E-08
0 	1.15991e-09 	0.92 	0.04 	0.04 	0.0291573 	0 	
-0.0291572 	-0.0409067 	0.0117495 	1.67052 	8.65607e-09 	0.835182 	29.2325 	
1.01105e-10 	91448.4 	916.789 	1145.99 	0.35 	8.53017 	0.195835 	4.37444e-05 	
0.00379119 	0.000947796 	
8.74889e-05 	3.47974e-09 	0.92 	0.04 	0.04 	0.0291573 	-2.48445e-09 	
-0.0291572 	-0.0409067 	0.0117495 	3.34104 	2.59682e-08 	3.34073 	26.7269 	
2.0221e-10 	182897 	1833.58 	2291.97 	0.35 	17.0603 	0.195835 	8.74889e-05 	
0.00758237 	0.00189559 	
0.000174978 	5.79957e-09 	0.92 	0.04 	0.04 	0.0291572 	-4.67662e-09 	
-0.0291571 	-0.0409067 	0.0117496 	3.34106 	4.32805e-08 	6.68147 	23.3862 	
2.02211e-10 	182897 	1833.58 	2291.97 	0.35 	17.0603 	0.195836 	8.74889e-05 	
0.00758237 	0.00189559 	
0.000262467 	8.11942e-09 	0.92 	0.04 	0.04 	0.0291572 	-6.57651e-09 	
-0.0291571 	-0.0409067 	0.0117496 	3.34108 	6.05928e-08 	10.0222 	20.0454 	
2.02213e-10 	182897 	1833.58 	2291.97 	0.35 	17.0603 	0.195837 	8.74889e-05 	
0.00758237 	0.00189559 	
0.000349956 	1.04393e-08 	0.92 	0.04 	0.04 	0.029157 	-8.18412e-09 	
-0.029157 	-0.0409067 	0.0117498 	3.34111 	7.79053e-08 	13.363 	16.7046 	
2.02215e-10 	182897 	1833.58 	2291.97 	0.35 	17.0603 	0.195839 	8.74889e-05 	
0.00758237 	0.00189559 	
0.000437444 	1.27592e-08 	0.92 	0.04 	0.04 	0.0291569 	-9.49945e-09 	
-0.0291568 	-0.0409067 	0.0117499 	3.34115 	9.5218e-08 	16.7038 	13.3638 	
2.02218e-10 	182897 	1833.58 	2291.97 	0.35 	17.0603 	0.195842 	8.74889e-05 	
0.00758237 	0.00189559 	
0.000524933 	1.50791e-08 	0.92 	0.04 	0.04 	0.0291567 	-1.05225e-08 	
-0.0291566 	-0.0409067 	0.0117501 	3.3412 	1.12531e-07 	20.0447 	10.023 	
2.02222e-10 	182897 	1833.58 	2291.97 	0.35 	17.0603 	0.195844 	8.74889e-05 	
0.00758237 	0.00189559 	
0.000612422 	1.73991e-08 	0.92 	0.04 	0.04 	0.0291565 	-1.12532e-08 	
-0.0291564 	-0.0409067 	0.0117503 	3.34126 	1.29844e-07 	23.3856 	6.68204 	
2.02226e-10 	182897 	1833.58 	2291.97 	0.35 	17.0603 	0.195848 	8.74889e-05 	
0.00758237 	0.00189559 	
0.000699911 	1.97191e-08 	0.92 	0.04 	0.04 	0.0291563 	-1.16917e-08 	
-0.0291562 	-0.0409067 	0.0117505 	3.34133 	1.47158e-07 	26.7266 	3.34106 	
2.02232e-10 	182897 	1833.58 	2291.97 	0.35 	17.0603 	0.195852 	8.74889e-05 	
0.00758237 	0.00189559 	
0.0007874 	2.08792e-08 	0.92 	0.04 	0.04 	0.029156 	-1.18379e-08 	
-0.0291559 	-0.0409067 	0.0117508 	1.6707 	1.47158e-07 	29.2324 	0.835273 	
1.01119e-10 	91448.4 	916.789 	1145.99 	0.35 	8.53017 	0.195856 	4.37444e-05 	
0.00379119 	0.000947796 	
ZONE T = "t = 4e-08 [s]" I = 10 SOLUTIONTIME = 4.0000000000000E-08
0 	1.16001e-09 	0.92 	0.04 	0.04 	0.0291573 	0 	
-0.0291573 	-0.0409067 	0.0117494 	1.67051 	8.65605e-09 	0.835256 	29.2351 	
1.42973e-10 	91448.4 	916.789 	1145.99 	0.35 	8.53017 	0.195836 	4.37444e-05 	
0.00379119 	0.000947796 	
8.74889e-05 	3.48004e-09 	0.92 	0.04 	0.04 	0.0291572 	-2.48467e-09 	
-0.0291573 	-0.0409067 	0.0117494 	3.34102 	2.59682e-08 	3.34103 	26.7293 	
2.85946e-10 	182897 	1833.58 	2291.97 	0.35 	17.0603 	0.195836 	8.74889e-05 	
0.00758237 	0.00189559 	
0.000174978 	5.80008e-09 	0.92 	0.04 	0.04 	0.0291572 	-4.67703e-09 	
-0.0291572 	-0.0409067 	0.0117495 	3.34103 	4.32804e-08 	6.68206 	23.3883 	
2.85947e-10 	182897 	1833.58 	2291.97 	0.35 	17.0603 	0.195837 	8.74889e-05 	
0.00758237 	0.00189559 	
0.000262467 	8.12014e-09 	0.92 	0.04 	0.04 	0.0291571 	-6.57709e-09 	
-0.0291572 	-0.0409067 	0.0117495 	3.34105 	6.05927e-08 	10.0231 	20.0472 	
2.8595e-10 	182897 	1833.58 	2291.97 	0.35 	17.0603 	0.195838 	8.74889e-05 	
0.00758237 	0.00189559 	
0.000349956 	1.04402e-08 	0.92 	0.04 	0.04 	0.029157 	-8.18485e-09 	
-0.0291571 	-0.0409067 	0.0117497 	3.34108 	7.79051e-08 	13.3642 	16.7061 	
2.85953e-10 	182897 	1833.58 	2291.97 	0.35 	17.0603 	0.19584 	8.74889e-05 	
0.00758237 	0.00189559 	
0.000437444 	1.27603e-08 	0.92 	0.04 	0.04 	0.0291569 	-9.50029e-09 	
-0.0291569 	-0.0409067 	0.0117498 	3.34112 	9.52178e-08 	16.7053 	13.365 	
2.85957e-10 	182897 	1833.58 	2291.97 	0.35 	17.0603 	0.195842 	8.74889e-05 	
0.00758237 	0.00189559 	
0.000524933 	1.50805e-08 	0.92 	0.04 	0.04 	0.0291567 	-1.05234e-08 	
-0.0291567 	-0.0409067 	0.01175 	3.34117 	1.12531e-07 	20.0465 	10.0238 	
2.85962e-10 	182897 	1833.58 	2291.97 	0.35 	17.0603 	0.195845 	8.74889e-05 	
0.00758237 	0.00189559 	
0.000612422 	1.74006e-08 	0.92 	0.04 	0.04 	0.0291565 	-1.12542e-08 	
-0.0291565 	-0.0409067 	0.0117502 	3.34123 	1.29844e-07 	23.3877 	6.68263 	
2.85968e-10 	182897 	1833.58 	2291.97 	0.35 	17.0603 	0.195849 	8.74889e-05 	
0.00758237 	0.00189559 	
0.000699911 	1.97209e-08 	0.92 	0.04 	0.04 	0.0291562 	-1.16927e-08 	
-0.0291563 	-0.0409067 	0.0117504 	3.3413 	1.47158e-07 	26.729 	3.34135 	
2.85975e-10 	182897 	1833.58 	2291.97 	0.35 	17.0603 	0.195853 	8.74889e-05 	
0.00758237 	0.00189559 	
0.0007874 	2.0881e-08 	0.92 	0.04 	0.04 	0.029156 	-1.18389e-08 	
-0.029156 	-0.0409067 	0.0117507 	1.67069 	1.47158e-07 	29.235 	0.835348 	
1.42991e-10 	91448.4 	916.789 	1145.99 	0.35 	8.53017 	0.195857 	4.37444e-05 	
0.00379119 	0.000947796 	
ZONE T = "t = 5.5e-08 [s]" I = 10 SOLUTIONTIME = 5.5000000000000E-08
0 	1.16001e-09 	0.92 	0.04 	0.04 	0.0291573 	0 	
-0.0291573 	-0.0409067 	0.0117495 	1.67051 	8.65682e-09 	0.835256 	29.2351 	
1.84841e-10 	91448.4 	916.789 	1145.99 	0.35 	8.53017 	0.195836 	4.37444e-05 	
0.00379119 	0.000947796 	
8.74889e-05 	3.48004e-09 	0.92 	0.04 	0.04 	0.0291572 	-2.48467e-09 	
-0.0291572 	-0.0409067 	0.0117495 	3.34103 	2.59705e-08 	3.34103 	26.7293 	
3.69682e-10 	182897 	1833.58 	2291.97 	0.35 	17.0603 	0.195836 	8.74889e-05 	
0.00758237 	0.00189559 	
0.000174978 	5.80008e-09 	0.92 	0.04 	0.04 	0.0291572 	-4.67703e-09 	
-0.0291572 	-0.0409067 	0.0117495 	3.34104 	4.32842e-08 	6.68206 	23.3883 	
3.69684e-10 	182897 	1833.58 	2291.97 	0.35 	17.0603 	0.195837 	8.74889e-05 	
0.00758237 	0.00189559 	
0.000262467 	8.12014e-09 	0.92 	0.04 	0.04 	0.0291571 	-6.57709e-09 	
-0.0291571 	-0.0409067 	0.0117496 	3.34106 	6.05981e-08 	10.0231 	20.0472 	
3.69687e-10 	182897 	1833.58 	2291.97 	0.35 	17.0603 	0.195838 	8.74889e-05 	
0.00758237 	0.00189559 	
0.000349956 	1.04402e-08 	0.92 	0.04 	0.04 	0.029157 	-8.18485e-09 	
-0.029157 	-0.0409067 	0.0117497 	3.3411 	7.79121e-08 	13.3642 	16.7061 	
3.69691e-10 	182897 	1833.58 	2291.97 	0.35 	17.0603 	0.19584 	8.74889e-05 	
0.00758237 	0.00189559 	
0.000437444 	1.27603e-08 	0.92 	0.04 	0.04 	0.0291569 	-9.50029e-09 	
-0.0291569 	-0.0409067 	0.0117498 	3.34114 	9.52263e-08 	16.7053 	13.365 	
3.69696e-10 	182897 	1833.58 	2291.97 	0.35 	17.0603 	0.195842 	8.74889e-05 	
0.00758237 	0.00189559 	
0.000524933 	1.50805e-08 	0.92 	0.04 	0.04 	0.0291567 	-1.05234e-08 	
-0.0291567 	-0.0409067 	0.01175 	3.34119 	1.12541e-07 	20.0465 	10.0238 	
3.69702e-10 	182897 	1833.58 	2291.97 	0.35 	17.0603 	0.195845 	8.74889e-05 	
0.00758237 	0.00189559 	
0.000612422 	1.74006e-08 	0.92 	0.04 	0.04 	0.0291565 	-1.12542e-08 	
-0.0291565 	-0.0409067 	0.0117502 	3.34124 	1.29856e-07 	23.3877 	6.68263 	
3.69709e-10 	182897 	1833.58 	2291.97 	0.35 	17.0603 	0.195849 	8.74889e-05 	
0.00758237 	0.00189559 	
0.000699911 	1.97209e-08 	0.92 	0.04 	0.04 	0.0291562 	-1.16927e-08 	
-0.0291563 	-0.0409067 	0.0117505 	3.34131 	1.47171e-07 	26.729 	3.34135 	
3.69718e-10 	182897 	1833.58 	2291.97 	0.35 	17.0603 	0.195853 	8.74889e-05 	
0.00758237 	0.00189559 	
0.0007874 	2.0881e-08 	0.92 	0.04 	0.04 	0.029156 	-1.18389e-08 	
-0.029156 	-0.0409067 	0.0117507 	1.6707 	1.47171e-07 	29.235 	0.835348 	
1.84864e-10 	91448.4 	916.789 	1145.99 	0.35 	8.53017 	0.195857 	4.37444e-05 	
0.00379119 	0.000947796 	
ZONE T = "t = 7.75e-08 [s]" I = 10 SOLUTIONTIME = 7.7500000000000E-08
0 	1.16001e-09 	0.92 	0.04 	0.04 	0.0291573 	0 	
-0.0291573 	-0.0409067 	0.0117495 	1.67051 	8.65682e-09 	0.835256 	29.2351 	
2.47643e-10 	91448.4 	916.789 	1145.99 	0.35 	8.53017 	0.195836 	4.37444e-05 	
0.00379119 	0.000947796 	
8.74889e-05 	3.48004e-09 	0.92 	0.04 	0.04 	0.0291572 	-2.48467e-09 	
-0.0291572 	-0.0409067 	0.0117495 	3.34103 	2.59705e-08 	3.34103 	26.7293 	
4.95287e-10 	182897 	1833.58 	2291.97 	0.35 	17.0603 	0.195836 	8.74889e-05 	
0.00758237 	0.00189559 	
0.000174978 	5.80008e-09 	0.92 	0.04 	0.04 	0.0291572 	-4.67703e-09 	
-0.0291572 	-0.0409067 	0.0117495 	3.34104 	4.32842e-08 	6.68206 	23.3883 	
4.95289e-10 	182897 	1833.58 	2291.97 	0.35 	17.0603 	0.195837 	8.74889e-05 	
0.00758237 	0.00189559 	
0.000262467 	8.12014e-09 	0.92 	0.04 	0.04 	0.0291571 	-6.57709e-09 	
-0.0291571 	-0.0409067 	0.0117496 	3.34106 	6.05981e-08 	10.0231 	20.0472 	
4.95292e-10 	182897 	1833.58 	2291.97 	0.35 	17.0603 	0.195838 	8.74889e-05 	
0.00758237 	0.00189559 	
0.000349956 	1.04402e-08 	0.92 	0.04 	0.04 	0.029157 	-8.18485e-09 	
-0.029157 	-0.0409067 	0.0117497 	3.3411 	7.79121e-08 	13.3642 	16.7061 	
4.95297e-10 	182897 	1833.58 	2291.97 	0.35 	17.0603 	0.19584 	8.74889e-05 	
0.00758237 	0.00189559 	
0.000437444 	1.27603e-08 	0.92 	0.04 	0.04 	0.0291569 	-9.50029e-09 	
-0.0291569 	-0.0409067 	0.0117498 	3.34114 	9.52263e-08 	16.7053 	13.365 	
4.95304e-10 	182897 	1833.58 	2291.97 	0.35 	17.0603 	0.195842 	8.74889e-05 	
0.00758237 	0.00189559 	
0.000524933 	1.50805e-08 	0.92 	0.04 	0.04 	0.0291567 	-1.05234e-08 	
-0.0291567 	-0.0409067 	0.01175 	3.34119 	1.12541e-07 	20.0465 	10.0238 	
4.95312e-10 	182897 	1833.58 	2291.97 	0.35 	17.0603 	0.195845 	8.74889e-05 	
0.00758237 	0.00189559 	
0.000612422 	1.74006e-08 	0.92 	0.04 	0.04 	0.0291565 	-1.12542e-08 	
-0.0291565 	-0.0409067 	0.0117502 	3.34124 	1.29856e-07 	23.3877 	6.68263 	
4.95322e-10 	182897 	1833.58 	2291.97 	0.35 	17.0603 	0.195849 	8.74889e-05 	
0.00758237 	0.00189559 	
0.000699911 	1.97209e-08 	0.92 	0.04 	0.04 	0.0291562 	-1.16927e-08 	
-0.0291563 	-0.0409067 	0.0117505 	3.34131 	1.47171e-07 	26.729 	3.34135 	
4.95333e-10 	182897 	1833.58 	2291.97 	0.35 	17.0603 	0.195853 	8.74889e-05 	
0.00758237 	0.00189559 	
0.0007874 	2.0881e-08 	0.92 	0.04 	0.04 	0.029156 	-1.18389e-08 	
-0.029156 	-0.0409067 	0.0117507 	1.6707 	1.47171e-07 	29.235 	0.835348 	
2.47673e-10 	91448.4 	916.789 	1145.99 	0.35 	8.53017 	0.195857 	4.37444e-05 	
0.00379119 	0.000947796 	
ZONE T = "t = 1.1125e-07 [s]" I = 10 SOLUTIONTIME = 1.1125000000000E-07
0 	1.16001e-09 	0.92 	0.04 	0.04 	0.0291573 	0 	
-0.0291573 	-0.0409067 	0.0117495 	1.67051 	8.65682e-09 	0.835256 	29.2351 	
3.41846e-10 	91448.4 	916.789 	1145.99 	0.35 	8.53017 	0.195836 	4.37444e-05 	
0.00379119 	0.000947796 	
8.74889e-05 	3.48004e-09 	0.92 	0.04 	0.04 	0.0291572 	-2.48467e-09 	
-0.0291572 	-0.0409067 	0.0117495 	3.34103 	2.59705e-08 	3.34103 	26.7293 	
6.83693e-10 	182897 	1833.58 	2291.97 	0.35 	17.0603 	0.195836 	8.74889e-05 	
0.00758237 	0.00189559 	
0.000174978 	5.80008e-09 	0.92 	0.04 	0.04 	0.0291572 	-4.67703e-09 	
-0.0291572 	-0.0409067 	0.0117495 	3.34104 	4.32842e-08 	6.68206 	23.3883 	
6.83696e-10 	182897 	1833.58 	2291.97 	0.35 	17.0603 	0.195837 	8.74889e-05 	
0.00758237 	0.00189559 	
0.000262467 	8.12014e-09 	0.92 	0.04 	0.04 	0.0291571 	-6.57709e-09 	
-0.0291571 	-0.0409067 	0.0117496 	3.34106 	6.05981e-08 	10.0231 	20.0472 	
6.83701e-10 	182897 	1833.58 	2291.97 	0.35 	17.0603 	0.195838 	8.74889e-05 	
0.00758237 	0.00189559 	
0.000349956 	1.04402e-08 	0.92 	0.04 	0.04 	0.029157 	-8.18485e-09 	
-0.029157 	-0.0409067 	0.0117497 	3.3411 	7.79121e-08 	13.3642 	16.7061 	
6.83708e-10 	182897 	1833.58 	2291.97 	0.35 	17.0603 	0.19584 	8.74889e-05 	
0.00758237 	0.00189559 	
0.000437444 	1.27603e-08 	0.92 	0.04 	0.04 	0.0291569 	-9.50029e-09 	
-0.0291569 	-0.0409067 	0.0117498 	3.34114 	9.52263e-08 	16.7053 	13.365 	
6.83717e-10 	182897 	1833.58 	2291.97 	0.35 	17.0603 	0.195842 	8.74889e-05 	
0.00758237 	0.00189559 	
0.000524933 	1.50805e-08 	0.92 	0.04 	0.04 	0.0291567 	-1.05234e-08 	
-0.0291567 	-0.0409067 	0.01175 	3.34119 	1.12541e-07 	20.0465 	10.0238 	
6.83727e-10 	182897 	1833.58 	2291.97 	0.35 	17.0603 	0.195845 	8.74889e-05 	
0.00758237 	0.00189559 	
0.000612422 	1.74006e-08 	0.92 	0.04 	0.04 	0.0291565 	-1.12542e-08 	
-0.0291565 	-0.0409067 	0.0117502 	3.34124 	1.29856e-07 	23.3877 	6.68263 	
6.8374e-10 	182897 	1833.58 	2291.97 	0.35 	17.0603 	0.195849 	8.74889e-05 	
0.00758237 	0.00189559 	
0.000699911 	1.97209e-08 	0.92 	0.04 	0.04 	0.0291562 	-1.16927e-08 	
-0.0291563 	-0.0409067 	0.0117505 	3.34131 	1.47171e-07 	26.729 	3.34135 	
6.83755e-10 	182897 	1833.58 	2291.97 	0.35 	17.0603 	0.195853 	8.74889e-05 	
0.00758237 	0.00189559 	
0.0007874 	2.0881e-08 	0.92 	0.04 	0.04 	0.029156 	-1.18389e-08 	
-0.029156 	-0.0409067 	0.0117507 	1.6707 	1.47171e-07 	29.235 	0.835348 	
3.41886e-10 	91448.4 	916.789 	1145.99 	0.35 	8.53017 	0.195857 	4.37444e-05 	
0.00379119 	0.000947796 	
ZONE T = "t = 1.61875e-07 [s]" I = 10 SOLUTIONTIME = 1.6187500000000E-07
0 	1.16001e-09 	0.92 	0.04 	0.04 	0.0291573 	0 	
-0.0291573 	-0.0409067 	0.0117495 	1.67051 	8.65682e-09 	0.835256 	29.2351 	
4.83151e-10 	91448.4 	916.789 	1145.99 	0.35 	8.53017 	0.195836 	4.37444e-05 	
0.00379119 	0.000947796 	
8.74889e-05 	3.48004e-09 	0.92 	0.04 	0.04 	0.0291572 	-2.48467e-09 	
-0.0291572 	-0.0409067 	0.0117495 	3.34103 	2.59705e-08 	3.34103 	26.7293 	
9.66303e-10 	182897 	1833.58 	2291.97 	0.35 	17.0603 	0.195836 	8.74889e-05 	
0.00758237 	0.00189559 	
0.000174978 	5.80008e-09 	0.92 	0.04 	0.04 	0.0291572 	-4.67703e-09 	
-0.0291572 	-0.0409067 	0.0117495 	3.34104 	4.32842e-08 	6.68206 	23.3883 	
9.66307e-10 	182897 	1833.58 	2291.97 	0.35 	17.0603 	0.195837 	8.74889e-05 	
0.00758237 	0.00189559 	
0.000262467 	8.12014e-09 	0.92 	0.04 	0.04 	0.0291571 	-6.57709e-09 	
-0.0291571 	-0.0409067 	0.0117496 	3.34106 	6.05981e-08 	10.0231 	20.0472 	
9.66313e-10 	182897 	1833.58 	2291.97 	0.35 	17.0603 	0.195838 	8.74889e-05 	
0.00758237 	0.00189559 	
0.000349956 	1.04402e-08 	0.92 	0.04 	0.04 	0.029157 	-8.18485e-09 	
-0.029157 	-0.0409067 	0.0117497 	3.3411 	7.79121e-08 	13.3642 	16.7061 	
9.66323e-10 	182897 	1833.58 	2291.97 	0.35 	17.0603 	0.19584 	8.74889e-05 	
0.00758237 	0.00189559 	
0.000437444 	1.27603e-08 	0.92 	0.04 	0.04 	0.0291569 	-9.50029e-09 	
-0.0291569 	-0.0409067 	0.0117498 	3.34114 	9.52263e-08 	16.7053 	13.365 	
9.66335e-10 	182897 	1833.58 	2291.97 	0.35 	17.0603 	0.195842 	8.74889e-05 	
0.00758237 	0.00189559 	
0.000524933 	1.50805e-08 	0.92 	0.04 	0.04 	0.0291567 	-1.05234e-08 	
-0.0291567 	-0.0409067 	0.01175 	3.34119 	1.12541e-07 	20.0465 	10.0238 	
9.6635e-10 	182897 	1833.58 	2291.97 	0.35 	17.0603 	0.195845 	8.74889e-05 	
0.00758237 	0.00189559 	
0.000612422 	1.74006e-08 	0.92 	0.04 	0.04 	0.0291565 	-1.12542e-08 	
-0.0291565 	-0.0409067 	0.0117502 	3.34124 	1.29856e-07 	23.3877 	6.68263 	
9.66368e-10 	182897 	1833.58 	2291.97 	0.35 	17.0603 	0.195849 	8.74889e-05 	
0.00758237 	0.00189559 	
0.000699911 	1.97209e-08 	0.92 	0.04 	0.04 	0.0291562 	-1.16927e-08 	
-0.0291563 	-0.0409067 	0.0117505 	3.34131 	1.47172e-07 	26.729 	3.34135 	
9.66389e-10 	182897 	1833.58 	2291.97 	0.35 	17.0603 	0.195853 	8.74889e-05 	
0.00758237 	0.00189559 	
0.0007874 	2.0881e-08 	0.92 	0.04 	0.04 	0.029156 	-1.18389e-08 	
-0.029156 	-0.0409067 	0.0117507 	1.6707 	1.47172e-07 	29.235 	0.835348 	
4.83206e-10 	91448.4 	916.789 	1145.99 	0.35 	8.53017 	0.195857 	4.37444e-05 	
0.00379119 	0.000947796 	
ZONE T = "t = 2.37813e-07 [s]" I = 10 SOLUTIONTIME = 2.3781250000000E-07
0 	1.16001e-09 	0.92 	0.04 	0.04 	0.0291573 	0 	
-0.0291573 	-0.0409067 	0.0117495 	1.67051 	8.65682e-09 	0.835256 	29.2351 	
6.95108e-10 	91448.4 	916.789 	1145.99 	0.35 	8.53017 	0.195836 	4.37444e-05 	
0.00379119 	0.000947796 	
8.74889e-05 	3.48004e-09 	0.92 	0.04 	0.04 	0.0291572 	-2.48467e-09 	
-0.0291572 	-0.0409067 	0.0117495 	3.34103 	2.59705e-08 	3.34103 	26.7293 	
1.39022e-09 	182897 	1833.58 	2291.97 	0.35 	17.0603 	0.195836 	8.74889e-05 	
0.00758237 	0.00189559 	
0.000174978 	5.80008e-09 	0.92 	0.04 	0.04 	0.0291572 	-4.67703e-09 	
-0.0291572 	-0.0409067 	0.0117495 	3.34104 	4.32842e-08 	6.68206 	23.3883 	
1.39022e-09 	182897 	1833.58 	2291.97 	0.35 	17.0603 	0.195837 	8.74889e-05 	
0.00758237 	0.00189559 	
0.000262467 	8.12014e-09 	0.92 	0.04 	0.04 	0.0291571 	-6.57709e-09 	
-0.0291571 	-0.0409067 	0.0117496 	3.34106 	6.05981e-08 	10.0231 	20.0472 	
1.39023e-09 	182897 	1833.58 	2291.97 	0.35 	17.0603 	0.195838 	8.74889e-05 	
0.00758237 	0.00189559 	
0.000349956 	1.04402e-08 	0.92 	0.04 	0.04 	0.029157 	-8.18485e-09 	
-0.029157 	-0.0409067 	0.0117497 	3.3411 	7.79121e-08 	13.3642 	16.7061 	
1.39025e-09 	182897 	1833.58 	2291.97 	0.35 	17.0603 	0.19584 	8.74889e-05 	
0.00758237 	0.00189559 	
0.000437444 	1.27603e-08 	0.92 	0.04 	0.04 	0.0291569 	-9.50029e-09 	
-0.0291569 	-0.0409067 	0.0117498 	3.34114 	9.52263e-08 	16.7053 	13.365 	
1.39026e-09 	182897 	1833.58 	2291.97 	0.35 	17.0603 	0.195842 	8.74889e-05 	
0.00758237 	0.00189559 	
0.000524933 	1.50805e-08 	0.92 	0.04 	0.04 	0.0291567 	-1.05234e-08 	
-0.0291567 	-0.0409067 	0.01175 	3.34119 	1.12541e-07 	20.0465 	10.0238 	
1.39028e-09 	182897 	1833.58 	2291.97 	0.35 	17.0603 	0.195845 	8.74889e-05 	
0.00758237 	0.00189559 	
0.000612422 	1.74006e-08 	0.92 	0.04 	0.04 	0.0291565 	-1.12542e-08 	
-0.0291565 	-0.0409067 	0.0117502 	3.34124 	1.29856e-07 	23.3877 	6.68263 	
1.39031e-09 	182897 	1833.58 	2291.97 	0.35 	17.0603 	0.195849 	8.74889e-05 	
0.00758237 	0.00189559 	
0.000699911 	1.97209e-08 	0.92 	0.04 	0.04 	0.0291562 	-1.16927e-08 	
-0.0291563 	-0.0409067 	0.0117505 	3.34131 	1.47172e-07 	26.729 	3.34135 	
1.39034e-09 	182897 	1833.58 	2291.97 	0.35 	17.0603 	0.195853 	8.74889e-05 	
0.00758237 	0.00189559 	
0.0007874 	2.0881e-08 	0.92 	0.04 	0.04 	0.029156 	-1.18389e-08 	
-0.029156 	-0.0409067 	0.0117507 	1.6707 	1.47172e-07 	29.235 	0.835348 	
6.95186e-10 	91448.4 	916.789 	1145.99 	0.35 	8.53017 	0.195857 	4.37444e-05 	
0.00379119 	0.000947796 	
ZONE T = "t = 3.51719e-07 [s]" I = 10 SOLUTIONTIME = 3.5171875000000E-07
0 	1.16001e-09 	0.92 	0.04 	0.04 	0.0291573 	0 	
-0.0291573 	-0.0409067 	0.0117495 	1.67051 	8.65682e-09 	0.835256 	29.2351 	
1.01304e-09 	91448.4 	916.789 	1145.99 	0.35 	8.53017 	0.195836 	4.37444e-05 	
0.00379119 	0.000947796 	
8.74889e-05 	3.48004e-09 	0.92 	0.04 	0.04 	0.0291572 	-2.48467e-09 	
-0.0291572 	-0.0409067 	0.0117495 	3.34103 	2.59705e-08 	3.34103 	26.7293 	
2.02609e-09 	182897 	1833.58 	2291.97 	0.35 	17.0603 	0.195836 	8.74889e-05 	
0.00758237 	0.00189559 	
0.000174978 	5.80008e-09 	0.92 	0.04 	0.04 	0.0291572 	-4.67703e-09 	
-0.0291572 	-0.0409067 	0.0117495 	3.34104 	4.32842e-08 	6.68206 	23.3883 	
2.0261e-09 	182897 	1833.58 	2291.97 	0.35 	17.0603 	0.195837 	8.74889e-05 	
0.00758237 	0.00189559 	
0.000262467 	8.12014e-09 	0.92 	0.04 	0.04 	0.0291571 	-6.57709e-09 	
-0.0291571 	-0.0409067 	0.0117496 	3.34106 	6.05981e-08 	10.0231 	20.0472 	
2.02611e-09 	182897 	1833.58 	2291.97 	0.35 	17.0603 	0.195838 	8.74889e-05 	
0.00758237 	0.00189559 	
0.000349956 	1.04402e-08 	0.92 	0.04 	0.04 	0.029157 	-8.18485e-09 	
-0.029157 	-0.0409067 	0.0117497 	3.3411 	7.79121e-08 	13.3642 	16.7061 	
2.02613e-09 	182897 	1833.58 	2291.97 	0.35 	17.0603 	0.19584 	8.74889e-05 	
0.00758237 	0.00189559 	
0.000437444 	1.27603e-08 	0.92 	0.04 	0.04 	0.0291569 	-9.50029e-09 	
-0.0291569 	-0.0409067 	0.0117498 	3.34114 	9.52263e-08 	16.7053 	13.365 	
2.02616e-09 	182897 	1833.58 	2291.97 	0.35 	17.0603 	0.195842 	8.74889e-05 	
0.00758237 	0.00189559 	
0.000524933 	1.50805e-08 	0.92 	0.04 	0.04 	0.0291567 	-1.05234e-08 	
-0.0291567 	-0.0409067 	0.01175 	3.34119 	1.12541e-07 	20.0465 	10.0238 	
2.02619e-09 	182897 	1833.58 	2291.97 	0.35 	17.0603 	0.195845 	8.74889e-05 	
0.00758237 	0.00189559 	
0.000612422 	1.74006e-08 	0.92 	0.04 	0.04 	0.0291565 	-1.12542e-08 	
-0.0291565 	-0.0409067 	0.0117502 	3.34124 	1.29856e-07 	23.3877 	6.68263 	
2.02622e-09 	182897 	1833.58 	2291.97 	0.35 	17.0603 	0.195849 	8.74889e-05 	
0.00758237 	0.00189559 	
0.000699911 	1.97209e-08 	0.92 	0.04 	0.04 	0.0291562 	-1.16927e-08 	
-0.0291563 	-0.0409067 	0.0117505 	3.34131 	1.47172e-07 	26.729 	3.34135 	
2.02627e-09 	182897 	1833.58 	2291.97 	0.35 	17.0603 	0.195853 	8.74889e-05 	
0.00758237 	0.00189559 	
0.0007874 	2.0881e-08 	0.92 	0.04 	0.04 	0.029156 	-1.18389e-08 	
-0.029156 	-0.0409067 	0.0117507 	1.6707 	1.47172e-07 	29.235 	0.835348 	
1.01316e-09 	91448.4 	916.789 	1145.99 	0.35 	8.53017 	0.195857 	4.37444e-05 	
0.00379119 	0.000947796 	
ZONE T = "t = 5.22578e-07 [s]" I = 10 SOLUTIONTIME = 5.2257812500000E-07
0 	1.16001e-09 	0.92 	0.04 	0.04 	0.0291573 	0 	
-0.0291573 	-0.0409067 	0.0117495 	1.67051 	8.65682e-09 	0.835256 	29.2351 	
1.48995e-09 	91448.4 	916.789 	1145.99 	0.35 	8.53017 	0.195836 	4.37444e-05 	
0.00379119 	0.000947796 	
8.74889e-05 	3.48004e-09 	0.92 	0.04 	0.04 	0.0291572 	-2.48467e-09 	
-0.0291572 	-0.0409067 	0.0117495 	3.34103 	2.59705e-08 	3.34103 	26.7293 	
2.9799e-09 	182897 	1833.58 	2291.97 	0.35 	17.0603 	0.195836 	8.74889e-05 	
0.00758237 	0.00189559 	
0.000174978 	5.80008e-09 	0.92 	0.04 	0.04 	0.0291572 	-4.67703e-09 	
-0.0291572 	-0.0409067 	0.0117495 	3.34104 	4.32842e-08 	6.68206 	23.3883 	
2.97991e-09 	182897 	1833.58 	2291.97 	0.35 	17.0603 	0.195837 	8.74889e-05 	
0.00758237 	0.00189559 	
0.000262467 	8.12014e-09 	0.92 	0.04 	0.04 	0.0291571 	-6.57709e-09 	
-0.0291571 	-0.0409067 	0.0117496 	3.34106 	6.05981e-08 	10.0231 	20.0472 	
2.97993e-09 	182897 	1833.58 	2291.97 	0.35 	17.0603 	0.195838 	8.74889e-05 	
0.00758237 	0.00189559 	
0.000349956 	1.04402e-08 	0.92 	0.04 	0.04 	0.029157 	-8.18485e-09 	
-0.029157 	-0.0409067 	0.0117497 	3.3411 	7.79121e-08 	13.3642 	16.7061 	
2.97996e-09 	182897 	1833.58 	2291.97 	0.35 	17.0603 	0.19584 	8.74889e-05 	
0.00758237 	0.00189559 	
0.000437444 	1.27603e-08 	0.92 	0.04 	0.04 	0.0291569 	-9.50029e-09 	
-0.0291569 	-0.0409067 	0.0117498 	3.34114 	9.52263e-08 	16.7053 	13.365 	
2.97999e-09 	182897 	1833.58 	2291.97 	0.35 	17.0603 	0.195842 	8.74889e-05 	
0.00758237 	0.00189559 	
0.000524933 	1.50805e-08 	0.92 	0.04 	0.04 	0.0291567 	-1.05234e-08 	
-0.0291567 	-0.0409067 	0.01175 	3.34119 	1.12541e-07 	20.0465 	10.0238 	
2.98004e-09 	182897 	1833.58 	2291.97 	0.35 	17.0603 	0.195845 	8.74889e-05 	
0.00758237 	0.00189559 	
0.000612422 	1.74006e-08 	0.92 	0.04 	0.04 	0.0291565 	-1.12542e-08 	
-0.0291565 	-0.0409067 	0.0117502 	3.34124 	1.29856e-07 	23.3877 	6.68263 	
2.98009e-09 	182897 	1833.58 	2291.97 	0.35 	17.0603 	0.195849 	8.74889e-05 	
0.00758237 	0.00189559 	
0.000699911 	1.97209e-08 	0.92 	0.04 	0.04 	0.0291562 	-1.16927e-08 	
-0.0291563 	-0.0409067 	0.0117505 	3.34131 	1.47173e-07 	26.729 	3.34135 	
2.98015e-09 	182897 	1833.58 	2291.97 	0.35 	17.0603 	0.195853 	8.74889e-05 	
0.00758237 	0.00189559 	
0.0007874 	2.0881e-08 	0.92 	0.04 	0.04 	0.029156 	-1.18389e-08 	
-0.029156 	-0.0409067 	0.0117507 	1.6707 	1.47173e-07 	29.235 	0.835348 	
1.49011e-09 	91448.4 	916.789 	1145.99 	0.35 	8.53017 	0.195857 	4.37444e-05 	
0.00379119 	0.000947796 	
ZONE T = "t = 7.78867e-07 [s]" I = 10 SOLUTIONTIME = 7.7886718750000E-07