TITLE = "Solution on Domain BulkDomain1D_1"
VARIABLES = "x [m]"  
"Vel_axial" 	"MF_sp(ECDMC)" 	"MF_sp(Li+)" 	"MF_sp(PF6-)" 	"Volt(Electroly)" 	"qHeat_accum [J/m3]" 	"qHeat_step [W/m3]" 	"Joule_Lyte [W/m3]" 	"Joule_Solid [W/m3]" 	
ZONE T = "SEP , 0.0000E+00", I = 10, SOLUTIONTIME = 0.000000E+00
ZONETYPE = ORDERED
DATAPACKING = BLOCK
STRANDID = 2
 7.8740000000000E-04  8.4102222222222E-04  8.9464444444444E-04  9.4826666666667E-04  1.0018888888889E-03  1.0555111111111E-03  1.1091333333333E-03  1.1627555555556E-03  1.2163777777778E-03  1.2700000000000E-03 
 0.0000000000000E+00  0.0000000000000E+00  0.0000000000000E+00  0.0000000000000E+00  0.0000000000000E+00  0.0000000000000E+00  0.0000000000000E+00  0.0000000000000E+00  0.0000000000000E+00  0.0000000000000E+00 
 9.2000000000000E-01  9.2000000000000E-01  9.2000000000000E-01  9.2000000000000E-01  9.2000000000000E-01  9.2000000000000E-01  9.2000000000000E-01  9.2000000000000E-01  9.2000000000000E-01  9.2000000000000E-01 
 4.0000000000000E-02  4.0000000000000E-02  4.0000000000000E-02  4.0000000000000E-02  4.0000000000000E-02  4.0000000000000E-02  4.0000000000000E-02  4.0000000000000E-02  4.0000000000000E-02  4.0000000000000E-02 
 4.0000000000000E-02  4.0000000000000E-02  4.0000000000000E-02  4.0000000000000E-02  4.0000000000000E-02  4.0000000000000E-02  4.0000000000000E-02  4.0000000000000E-02  4.0000000000000E-02  4.0000000000000E-02 
-7.0000000000000E-02 -7.0000000000000E-02 -7.0000000000000E-02 -7.0000000000000E-02 -7.0000000000000E-02 -7.0000000000000E-02 -7.0000000000000E-02 -7.0000000000000E-02 -7.0000000000000E-02 -7.0000000000000E-02 
 0.0000000000000E+00  0.0000000000000E+00  0.0000000000000E+00  0.0000000000000E+00  0.0000000000000E+00  0.0000000000000E+00  0.0000000000000E+00  0.0000000000000E+00  0.0000000000000E+00  0.0000000000000E+00 
 0.0000000000000E+00  0.0000000000000E+00  0.0000000000000E+00  0.0000000000000E+00  0.0000000000000E+00  0.0000000000000E+00  0.0000000000000E+00  0.0000000000000E+00  0.0000000000000E+00  0.0000000000000E+00 
 0.0000000000000E+00  0.0000000000000E+00  0.0000000000000E+00  0.0000000000000E+00  0.0000000000000E+00  0.0000000000000E+00  0.0000000000000E+00  0.0000000000000E+00  0.0000000000000E+00  0.0000000000000E+00 
 0.0000000000000E+00  0.0000000000000E+00  0.0000000000000E+00  0.0000000000000E+00  0.0000000000000E+00  0.0000000000000E+00  0.0000000000000E+00  0.0000000000000E+00  0.0000000000000E+00  0.0000000000000E+00 
ZONE T = "SEP , 1.0000E-08", I = 10, SOLUTIONTIME = 1.000000E-08
ZONETYPE = ORDERED
DATAPACKING = BLOCK
STRANDID = 2
 7.8740000000000E-04  8.4102222222222E-04  8.9464444444444E-04  9.4826666666667E-04  1.0018888888889E-03  1.0555111111111E-03  1.1091333333333E-03  1.1627555555556E-03  1.2163777777778E-03  1.2700000000000E-03 
 2.0857410214043E-08  2.0857410214043E-08  2.0857410214043E-08  2.0857410214043E-08  2.0857410214043E-08  2.0857410214043E-08  2.0857410214043E-08  2.0857410214043E-08  2.0857410214043E-08  1.9699689609512E-08 
 9.1999999999967E-01  9.2000000000000E-01  9.2000000000000E-01  9.2000000000000E-01  9.2000000000000E-01  9.2000000000000E-01  9.2000000000000E-01  9.2000000000000E-01  9.2000000000000E-01  9.2000000000037E-01 
 4.0000000000167E-02  4.0000000000000E-02  4.0000000000000E-02  4.0000000000000E-02  4.0000000000000E-02  4.0000000000000E-02  4.0000000000000E-02  4.0000000000000E-02  4.0000000000000E-02  3.9999999999813E-02 
 4.0000000000167E-02  4.0000000000000E-02  4.0000000000000E-02  4.0000000000000E-02  4.0000000000000E-02  4.0000000000000E-02  4.0000000000000E-02  4.0000000000000E-02  4.0000000000000E-02  3.9999999999813E-02 
 2.9166137402921E-02  2.9166063491559E-02  2.9165989580198E-02  2.9165915668836E-02  2.9165841757475E-02  2.9165767846113E-02  2.9165693934752E-02  2.9165620023390E-02  2.9165546112028E-02  2.9165472200667E-02 
 4.1411327759003E-10  4.1411327757016E-10  4.1411327755029E-10  4.1411327755029E-10  4.1411327756973E-10  4.1411327756973E-10  4.1411327755029E-10  4.1411327755029E-10  4.1411327754980E-10  4.1411327754932E-10 
 4.1411327759003E-02  4.1411327757016E-02  4.1411327755029E-02  4.1411327755029E-02  4.1411327756973E-02  4.1411327756973E-02  4.1411327755029E-02  4.1411327755029E-02  4.1411327754980E-02  4.1411327754932E-02 
 4.1411327759003E-02  4.1411327757016E-02  4.1411327755029E-02  4.1411327755029E-02  4.1411327756973E-02  4.1411327756973E-02  4.1411327755029E-02  4.1411327755029E-02  4.1411327754980E-02  4.1411327754932E-02 
 0.0000000000000E+00  0.0000000000000E+00  0.0000000000000E+00  0.0000000000000E+00  0.0000000000000E+00  0.0000000000000E+00  0.0000000000000E+00  0.0000000000000E+00  0.0000000000000E+00  0.0000000000000E+00 
ZONE T = "SEP , 2.0000E-08", I = 10, SOLUTIONTIME = 2.000000E-08
ZONETYPE = ORDERED
DATAPACKING = BLOCK
STRANDID = 2
 7.8740000000000E-04  8.4102222222222E-04  8.9464444444444E-04  9.4826666666667E-04  1.0018888888889E-03  1.0555111111111E-03  1.1091333333333E-03  1.1627555555556E-03  1.2163777777778E-03  1.2700000000000E-03 
 2.0862627488151E-08  2.0861901072696E-08  2.0861901072696E-08  2.0861901072696E-08  2.0861901072696E-08  2.0861901072696E-08  2.0861901072696E-08  2.0861901072696E-08  2.0861901072696E-08  1.9703628431184E-08 
 9.1999999999933E-01  9.2000000000000E-01  9.2000000000000E-01  9.2000000000000E-01  9.2000000000000E-01  9.2000000000000E-01  9.2000000000000E-01  9.2000000000000E-01  9.2000000000000E-01  9.2000000000075E-01 
 4.0000000000334E-02  4.0000000000000E-02  4.0000000000000E-02  4.0000000000000E-02  4.0000000000000E-02  4.0000000000000E-02  4.0000000000000E-02  4.0000000000000E-02  4.0000000000000E-02  3.9999999999625E-02 
 4.0000000000334E-02  4.0000000000000E-02  4.0000000000000E-02  4.0000000000000E-02  4.0000000000000E-02  4.0000000000000E-02  4.0000000000000E-02  4.0000000000000E-02  4.0000000000000E-02  3.9999999999625E-02 
 2.9166140210705E-02  2.9166066298875E-02  2.9165992387045E-02  2.9165918475214E-02  2.9165844563384E-02  2.9165770651553E-02  2.9165696739723E-02  2.9165622827892E-02  2.9165548916062E-02  2.9165475004231E-02 
 8.2823181007332E-10  8.2823181003314E-10  8.2823181001240E-10  8.2823181003184E-10  8.2823181005128E-10  8.2823181005128E-10  8.2823181003184E-10  8.2823181003183E-10  8.2823181003039E-10  8.2823181002893E-10 
 4.1411853248328E-02  4.1411853246298E-02  4.1411853246211E-02  4.1411853248155E-02  4.1411853248155E-02  4.1411853248155E-02  4.1411853248155E-02  4.1411853248155E-02  4.1411853248058E-02  4.1411853247961E-02 
 4.1411853248328E-02  4.1411853246298E-02  4.1411853246211E-02  4.1411853248155E-02  4.1411853248155E-02  4.1411853248155E-02  4.1411853248155E-02  4.1411853248155E-02  4.1411853248058E-02  4.1411853247961E-02 
 0.0000000000000E+00  0.0000000000000E+00  0.0000000000000E+00  0.0000000000000E+00  0.0000000000000E+00  0.0000000000000E+00  0.0000000000000E+00  0.0000000000000E+00  0.0000000000000E+00  0.0000000000000E+00 
ZONE T = "SEP , 3.0000E-08", I = 10, SOLUTIONTIME = 3.000000E-08
ZONETYPE = ORDERED
DATAPACKING = BLOCK
STRANDID = 2
 7.8740000000000E-04  8.4102222222222E-04  8.9464444444444E-04  9.4826666666667E-04  1.0018888888889E-03  1.0555111111111E-03  1.1091333333333E-03  1.1627555555556E-03  1.2163777777778E-03  1.2700000000000E-03 
 2.0863717110984E-08  2.0863717110984E-08  2.0863717110984E-08  2.0863717110984E-08  2.0863717110984E-08  2.0863717110984E-08  2.0863717110984E-08  2.0863717110984E-08  2.0863717110984E-08  1.9705444469485E-08 
 9.1999999999900E-01  9.2000000000000E-01  9.2000000000000E-01  9.2000000000000E-01  9.2000000000000E-01  9.2000000000000E-01  9.2000000000000E-01  9.2000000000000E-01  9.2000000000000E-01  9.2000000000112E-01 
 4.0000000000502E-02  4.0000000000000E-02  4.0000000000000E-02  4.0000000000000E-02  4.0000000000000E-02  4.0000000000000E-02  4.0000000000000E-02  4.0000000000000E-02  4.0000000000000E-02  3.9999999999438E-02 
 4.0000000000502E-02  4.0000000000000E-02  4.0000000000000E-02  4.0000000000000E-02  4.0000000000000E-02  4.0000000000000E-02  4.0000000000000E-02  4.0000000000000E-02  4.0000000000000E-02  3.9999999999438E-02 
 2.9166140210494E-02  2.9166066298664E-02  2.9165992386833E-02  2.9165918475003E-02  2.9165844563172E-02  2.9165770651342E-02  2.9165696739511E-02  2.9165622827681E-02  2.9165548915850E-02  2.9165475004020E-02 
 1.2423503425575E-09  1.2423503424965E-09  1.2423503424745E-09  1.2423503424940E-09  1.2423503425134E-09  1.2423503425134E-09  1.2423503424940E-09  1.2423503424939E-09  1.2423503424910E-09  1.2423503425076E-09 
 4.1411853248415E-02  4.1411853246341E-02  4.1411853246211E-02  4.1411853246211E-02  4.1411853246211E-02  4.1411853246211E-02  4.1411853246211E-02  4.1411853246211E-02  4.1411853246066E-02  4.1411853247864E-02 
 4.1411853248415E-02  4.1411853246341E-02  4.1411853246211E-02  4.1411853246211E-02  4.1411853246211E-02  4.1411853246211E-02  4.1411853246211E-02  4.1411853246211E-02  4.1411853246066E-02  4.1411853247864E-02 
 0.0000000000000E+00  0.0000000000000E+00  0.0000000000000E+00  0.0000000000000E+00  0.0000000000000E+00  0.0000000000000E+00  0.0000000000000E+00  0.0000000000000E+00  0.0000000000000E+00  0.0000000000000E+00 
ZONE T = "SEP , 4.0000E-08", I = 10, SOLUTIONTIME = 4.000000E-08
ZONETYPE = ORDERED
DATAPACKING = BLOCK
STRANDID = 2
 7.8740000000000E-04  8.4102222222222E-04  8.9464444444444E-04  9.4826666666667E-04  1.0018888888889E-03  1.0555111111111E-03  1.1091333333333E-03  1.1627555555556E-03  1.2163777777778E-03  1.2700000000000E-03 
 2.0859903429491E-08  2.0859903429491E-08  2.0859903429491E-08  2.0859903429491E-08  2.0859903429491E-08  2.0859903429491E-08  2.0859903429491E-08  2.0859903429491E-08  2.0859903429491E-08  1.9702720411187E-08 
 9.1999999999866E-01  9.2000000000000E-01  9.2000000000000E-01  9.2000000000000E-01  9.2000000000000E-01  9.2000000000000E-01  9.2000000000000E-01  9.2000000000000E-01  9.2000000000000E-01  9.2000000000150E-01 
 4.0000000000669E-02  4.0000000000000E-02  4.0000000000000E-02  4.0000000000000E-02  4.0000000000000E-02  4.0000000000000E-02  4.0000000000000E-02  4.0000000000000E-02  4.0000000000000E-02  3.9999999999251E-02 
 4.0000000000669E-02  4.0000000000000E-02  4.0000000000000E-02  4.0000000000000E-02  4.0000000000000E-02  4.0000000000000E-02  4.0000000000000E-02  4.0000000000000E-02  4.0000000000000E-02  3.9999999999251E-02 
 2.9166140210282E-02  2.9166066298451E-02  2.9165992386621E-02  2.9165918474790E-02  2.9165844562960E-02  2.9165770651129E-02  2.9165696739299E-02  2.9165622827469E-02  2.9165548915638E-02  2.9165475003808E-02 
 1.6564688750036E-09  1.6564688749410E-09  1.6564688749172E-09  1.6564688749366E-09  1.6564688749755E-09  1.6564688749755E-09  1.6564688749366E-09  1.6564688749366E-09  1.6564688749318E-09  1.6564688749464E-09 
 4.1411853244614E-02  4.1411853244440E-02  4.1411853244267E-02  4.1411853244267E-02  4.1411853246211E-02  4.1411853246211E-02  4.1411853244267E-02  4.1411853244267E-02  4.1411853244074E-02  4.1411853243880E-02 
 4.1411853244614E-02  4.1411853244440E-02  4.1411853244267E-02  4.1411853244267E-02  4.1411853246211E-02  4.1411853246211E-02  4.1411853244267E-02  4.1411853244267E-02  4.1411853244074E-02  4.1411853243880E-02 
 0.0000000000000E+00  0.0000000000000E+00  0.0000000000000E+00  0.0000000000000E+00  0.0000000000000E+00  0.0000000000000E+00  0.0000000000000E+00  0.0000000000000E+00  0.0000000000000E+00  0.0000000000000E+00 
ZONE T = "SEP , 5.5000E-08", I = 10, SOLUTIONTIME = 5.500000E-08
ZONETYPE = ORDERED
DATAPACKING = BLOCK
STRANDID = 2
 7.8740000000000E-04  8.4102222222222E-04  8.9464444444444E-04  9.4826666666667E-04  1.0018888888889E-03  1.0555111111111E-03  1.1091333333333E-03  1.1627555555556E-03  1.2163777777778E-03  1.2700000000000E-03 
 2.0866259564358E-08  2.0866259564358E-08  2.0866259564358E-08  2.0866259564358E-08  2.0866259564358E-08  2.0866259564358E-08  2.0866259564358E-08  2.0866259564358E-08  2.0866259564358E-08  1.9708531734476E-08 
 9.1999999999816E-01  9.2000000000000E-01  9.2000000000000E-01  9.2000000000000E-01  9.2000000000000E-01  9.2000000000000E-01  9.2000000000000E-01  9.2000000000000E-01  9.2000000000000E-01  9.2000000000206E-01 
 4.0000000000920E-02  4.0000000000000E-02  4.0000000000000E-02  4.0000000000000E-02  4.0000000000000E-02  4.0000000000000E-02  4.0000000000000E-02  4.0000000000000E-02  4.0000000000000E-02  3.9999999998970E-02 
 4.0000000000920E-02  4.0000000000000E-02  4.0000000000000E-02  4.0000000000000E-02  4.0000000000000E-02  4.0000000000000E-02  4.0000000000000E-02  4.0000000000000E-02  4.0000000000000E-02  3.9999999998970E-02 
 2.9166140210039E-02  2.9166066298208E-02  2.9165992386378E-02  2.9165918474547E-02  2.9165844562717E-02  2.9165770650886E-02  2.9165696739056E-02  2.9165622827225E-02  2.9165548915395E-02  2.9165475003564E-02 
 2.2776466736748E-09  2.2776466736085E-09  2.2776466735812E-09  2.2776466735715E-09  2.2776466736104E-09  2.2776466736395E-09  2.2776466736006E-09  2.2776466736006E-09  2.2776466735918E-09  2.2776466736024E-09 
 4.1411853244744E-02  4.1411853244505E-02  4.1411853244267E-02  4.1411853242324E-02  4.1411853242323E-02  4.1411853244267E-02  4.1411853244267E-02  4.1411853244267E-02  4.1411853244001E-02  4.1411853243734E-02 
 4.1411853244744E-02  4.1411853244505E-02  4.1411853244267E-02  4.1411853242324E-02  4.1411853242323E-02  4.1411853244267E-02  4.1411853244267E-02  4.1411853244267E-02  4.1411853244001E-02  4.1411853243734E-02 
 0.0000000000000E+00  0.0000000000000E+00  0.0000000000000E+00  0.0000000000000E+00  0.0000000000000E+00  0.0000000000000E+00  0.0000000000000E+00  0.0000000000000E+00  0.0000000000000E+00  0.0000000000000E+00 
ZONE T = "SEP , 7.7500E-08", I = 10, SOLUTIONTIME = 7.750000E-08
ZONETYPE = ORDERED
DATAPACKING = BLOCK
STRANDID = 2
 7.8740000000000E-04  8.4102222222222E-04  8.9464444444444E-04  9.4826666666667E-04  1.0018888888889E-03  1.0555111111111E-03  1.1091333333333E-03  1.1627555555556E-03  1.2163777777778E-03  1.2700000000000E-03 
 2.0860771091435E-08  2.0860771091435E-08  2.0860771091435E-08  2.0860771091435E-08  2.0860771091435E-08  2.0860771091435E-08  2.0860771091435E-08  2.0860771091435E-08  2.0860771091435E-08  1.9702558984604E-08 
 9.1999999999741E-01  9.2000000000000E-01  9.2000000000000E-01  9.2000000000000E-01  9.2000000000000E-01  9.2000000000000E-01  9.2000000000000E-01  9.2000000000000E-01  9.2000000000000E-01  9.2000000000290E-01 
 4.0000000001296E-02  4.0000000000000E-02  4.0000000000000E-02  4.0000000000000E-02  4.0000000000000E-02  4.0000000000000E-02  4.0000000000000E-02  4.0000000000000E-02  4.0000000000000E-02  3.9999999998548E-02 
 4.0000000001296E-02  4.0000000000000E-02  4.0000000000000E-02  4.0000000000000E-02  4.0000000000000E-02  4.0000000000000E-02  4.0000000000000E-02  4.0000000000000E-02  4.0000000000000E-02  3.9999999998548E-02 
 2.9166140209615E-02  2.9166066297784E-02  2.9165992385954E-02  2.9165918474123E-02  2.9165844562293E-02  2.9165770650462E-02  2.9165696738632E-02  2.9165622826802E-02  2.9165548914971E-02  2.9165475003141E-02 
 3.2094133715984E-09  3.2094133715246E-09  3.2094133715335E-09  3.2094133715238E-09  3.2094133715189E-09  3.2094133715481E-09  3.2094133715529E-09  3.2094133715529E-09  3.2094133714919E-09  3.2094133714940E-09 
 4.1411853241051E-02  4.1411853240715E-02  4.1411853242324E-02  4.1411853242324E-02  4.1411853240380E-02  4.1411853240380E-02  4.1411853242324E-02  4.1411853242323E-02  4.1411853240004E-02  4.1411853239628E-02 
 4.1411853241051E-02  4.1411853240715E-02  4.1411853242324E-02  4.1411853242324E-02  4.1411853240380E-02  4.1411853240380E-02  4.1411853242324E-02  4.1411853242323E-02  4.1411853240004E-02  4.1411853239628E-02 
 0.0000000000000E+00  0.0000000000000E+00  0.0000000000000E+00  0.0000000000000E+00  0.0000000000000E+00  0.0000000000000E+00  0.0000000000000E+00  0.0000000000000E+00  0.0000000000000E+00  0.0000000000000E+00 
ZONE T = "SEP , 1.1125E-07", I = 10, SOLUTIONTIME = 1.112500E-07
ZONETYPE = ORDERED
DATAPACKING = BLOCK
STRANDID = 2
 7.8740000000000E-04  8.4102222222222E-04  8.9464444444444E-04  9.4826666666667E-04  1.0018888888889E-03  1.0555111111111E-03  1.1091333333333E-03  1.1627555555556E-03  1.2163777777778E-03  1.2700000000000E-03 
 2.0862304634288E-08  2.0862304634288E-08  2.0862304634288E-08  2.0862304634288E-08  2.0862304634288E-08  2.0862304634288E-08  2.0862304634288E-08  2.0862304634288E-08  2.0862304634288E-08  1.9704899655774E-08 
 9.1999999999628E-01  9.2000000000000E-01  9.2000000000000E-01  9.2000000000000E-01  9.2000000000000E-01  9.2000000000000E-01  9.2000000000000E-01  9.2000000000000E-01  9.2000000000000E-01  9.2000000000417E-01 
 4.0000000001860E-02  4.0000000000000E-02  4.0000000000000E-02  4.0000000000000E-02  4.0000000000000E-02  4.0000000000000E-02  4.0000000000000E-02  4.0000000000000E-02  4.0000000000000E-02  3.9999999997916E-02 
 4.0000000001860E-02  4.0000000000000E-02  4.0000000000000E-02  4.0000000000000E-02  4.0000000000000E-02  4.0000000000000E-02  4.0000000000000E-02  4.0000000000000E-02  4.0000000000000E-02  3.9999999997916E-02 
 2.9166140208979E-02  2.9166066297149E-02  2.9165992385318E-02  2.9165918473488E-02  2.9165844561657E-02  2.9165770649827E-02  2.9165696737997E-02  2.9165622826166E-02  2.9165548914336E-02  2.9165475002505E-02 
 4.6070634182313E-09  4.6070634182725E-09  4.6070634183307E-09  4.6070634182554E-09  4.6070634183161E-09  4.6070634183453E-09  4.6070634182845E-09  4.6070634183501E-09  4.6070634182709E-09  4.6070634181892E-09 
 4.1411853233567E-02  4.1411853236973E-02  4.1411853238436E-02  4.1411853236492E-02  4.1411853238436E-02  4.1411853238436E-02  4.1411853236492E-02  4.1411853238435E-02  4.1411853237896E-02  4.1411853235413E-02 
 4.1411853233567E-02  4.1411853236973E-02  4.1411853238436E-02  4.1411853236492E-02  4.1411853238436E-02  4.1411853238436E-02  4.1411853236492E-02  4.1411853238435E-02  4.1411853237896E-02  4.1411853235413E-02 
 0.0000000000000E+00  0.0000000000000E+00  0.0000000000000E+00  0.0000000000000E+00  0.0000000000000E+00  0.0000000000000E+00  0.0000000000000E+00  0.0000000000000E+00  0.0000000000000E+00  0.0000000000000E+00 
ZONE T = "SEP , 1.6188E-07", I = 10, SOLUTIONTIME = 1.618750E-07
ZONETYPE = ORDERED
DATAPACKING = BLOCK
STRANDID = 2
 7.8740000000000E-04  8.4102222222222E-04  8.9464444444444E-04  9.4826666666667E-04  1.0018888888889E-03  1.0555111111111E-03  1.1091333333333E-03  1.1627555555556E-03  1.2163777777778E-03  1.2700000000000E-03 
 2.0863452548739E-08  2.0863452548739E-08  2.0863452548739E-08  2.0863452548739E-08  2.0863452548739E-08  2.0863452548739E-08  2.0863452548739E-08  2.0863452548739E-08  2.0863452548739E-08  1.9705617101856E-08 
 9.1999999999459E-01  9.2000000000000E-01  9.2000000000000E-01  9.2000000000000E-01  9.2000000000000E-01  9.2000000000000E-01  9.2000000000000E-01  9.2000000000000E-01  9.2000000000000E-01  9.2000000000606E-01 
 4.0000000002706E-02  4.0000000000001E-02  4.0000000000000E-02  4.0000000000000E-02  4.0000000000000E-02  4.0000000000000E-02  4.0000000000000E-02  4.0000000000000E-02  3.9999999999999E-02  3.9999999996968E-02 
 4.0000000002706E-02  4.0000000000001E-02  4.0000000000000E-02  4.0000000000000E-02  4.0000000000000E-02  4.0000000000000E-02  4.0000000000000E-02  4.0000000000000E-02  3.9999999999999E-02  3.9999999996968E-02 
 2.9166140208027E-02  2.9166066296197E-02  2.9165992384366E-02  2.9165918472536E-02  2.9165844560705E-02  2.9165770648875E-02  2.9165696737044E-02  2.9165622825214E-02  2.9165548913384E-02  2.9165475001553E-02 
 6.7035384880060E-09  6.7035384881101E-09  6.7035384882313E-09  6.7035384881559E-09  6.7035384882167E-09  6.7035384882459E-09  6.7035384881851E-09  6.7035384882506E-09  6.7035384881317E-09  6.7035384880103E-09 
 4.1411853230118E-02  4.1411853231361E-02  4.1411853232604E-02  4.1411853232604E-02  4.1411853232604E-02  4.1411853232604E-02  4.1411853232604E-02  4.1411853232604E-02  4.1411853231819E-02  4.1411853231034E-02 
 4.1411853230118E-02  4.1411853231361E-02  4.1411853232604E-02  4.1411853232604E-02  4.1411853232604E-02  4.1411853232604E-02  4.1411853232604E-02  4.1411853232604E-02  4.1411853231819E-02  4.1411853231034E-02 
 0.0000000000000E+00  0.0000000000000E+00  0.0000000000000E+00  0.0000000000000E+00  0.0000000000000E+00  0.0000000000000E+00  0.0000000000000E+00  0.0000000000000E+00  0.0000000000000E+00  0.0000000000000E+00 
ZONE T = "SEP , 2.3781E-07", I = 10, SOLUTIONTIME = 2.378125E-07
ZONETYPE = ORDERED
DATAPACKING = BLOCK
STRANDID = 2
 7.8740000000000E-04  8.4102222222222E-04  8.9464444444444E-04  9.4826666666667E-04  1.0018888888889E-03  1.0555111111111E-03  1.1091333333333E-03  1.1627555555556E-03  1.2163777777778E-03  1.2700000000000E-03 
 2.0862555737539E-08  2.0862555737539E-08  2.0862555737539E-08  2.0862555737539E-08  2.0862555737539E-08  2.0862555737539E-08  2.0862555737539E-08  2.0862555737539E-08  2.0862460077890E-08  1.9704803992923E-08 
 9.1999999999205E-01  9.2000000000000E-01  9.2000000000000E-01  9.2000000000000E-01  9.2000000000000E-01  9.2000000000000E-01  9.2000000000000E-01  9.2000000000000E-01  9.2000000000000E-01  9.2000000000891E-01 
 4.0000000003976E-02  4.0000000000002E-02  4.0000000000000E-02  4.0000000000000E-02  4.0000000000000E-02  4.0000000000000E-02  4.0000000000000E-02  4.0000000000000E-02  3.9999999999998E-02  3.9999999995546E-02 
 4.0000000003976E-02  4.0000000000002E-02  4.0000000000000E-02  4.0000000000000E-02  4.0000000000000E-02  4.0000000000000E-02  4.0000000000000E-02  4.0000000000000E-02  3.9999999999998E-02  3.9999999995546E-02 
 2.9166140206599E-02  2.9166066294768E-02  2.9165992382938E-02  2.9165918471107E-02  2.9165844559277E-02  2.9165770647446E-02  2.9165696735616E-02  2.9165622823785E-02  2.9165548911955E-02  2.9165475000125E-02 
 9.8482510921275E-09  9.8482510921535E-09  9.8482510923441E-09  9.8482510924164E-09  9.8482510924771E-09  9.8482510925063E-09  9.8482510924455E-09  9.8482510925110E-09  9.8482510924521E-09  9.8482510923908E-09 
 4.1411853223000E-02  4.1411853221970E-02  4.1411853222885E-02  4.1411853224829E-02  4.1411853224828E-02  4.1411853224829E-02  4.1411853224829E-02  4.1411853224828E-02  4.1411853225619E-02  4.1411853226410E-02 
 4.1411853223000E-02  4.1411853221970E-02  4.1411853222885E-02  4.1411853224829E-02  4.1411853224828E-02  4.1411853224829E-02  4.1411853224829E-02  4.1411853224828E-02  4.1411853225619E-02  4.1411853226410E-02 
 0.0000000000000E+00  0.0000000000000E+00  0.0000000000000E+00  0.0000000000000E+00  0.0000000000000E+00  0.0000000000000E+00  0.0000000000000E+00  0.0000000000000E+00  0.0000000000000E+00  0.0000000000000E+00 
ZONE T = "SEP , 3.5172E-07", I = 10, SOLUTIONTIME = 3.517188E-07
ZONETYPE = ORDERED
DATAPACKING = BLOCK
STRANDID = 2
 7.8740000000000E-04  8.4102222222222E-04  8.9464444444444E-04  9.4826666666667E-04  1.0018888888889E-03  1.0555111111111E-03  1.1091333333333E-03  1.1627555555556E-03  1.2163777777778E-03  1.2700000000000E-03 
 2.0862739082206E-08  2.0862739082206E-08  2.0862739082206E-08  2.0862739082206E-08  2.0862739082206E-08  2.0862739082206E-08  2.0862739082206E-08  2.0862739082206E-08  2.0862739082206E-08  1.9705011252613E-08 
 9.1999999998824E-01  9.1999999999999E-01  9.2000000000000E-01  9.2000000000000E-01  9.2000000000000E-01  9.2000000000000E-01  9.2000000000000E-01  9.2000000000000E-01  9.2000000000001E-01  9.2000000001317E-01 
 4.0000000005879E-02  4.0000000000003E-02  4.0000000000000E-02  4.0000000000000E-02  4.0000000000000E-02  4.0000000000000E-02  4.0000000000000E-02  4.0000000000000E-02  3.9999999999996E-02  3.9999999993414E-02 
 4.0000000005879E-02  4.0000000000003E-02  4.0000000000000E-02  4.0000000000000E-02  4.0000000000000E-02  4.0000000000000E-02  4.0000000000000E-02  4.0000000000000E-02  3.9999999999996E-02  3.9999999993414E-02 
 2.9166140204458E-02  2.9166066292627E-02  2.9165992380797E-02  2.9165918468967E-02  2.9165844557136E-02  2.9165770645306E-02  2.9165696733475E-02  2.9165622821645E-02  2.9165548909814E-02  2.9165474997984E-02 
 1.4565319996651E-08  1.4565319996946E-08  1.4565319997406E-08  1.4565319997478E-08  1.4565319997318E-08  1.4565319997347E-08  1.4565319997508E-08  1.4565319997573E-08  1.4565319997763E-08  1.4565319997950E-08 
 4.1411853208435E-02  4.1411853210801E-02  4.1411853213166E-02  4.1411853213165E-02  4.1411853211221E-02  4.1411853211221E-02  4.1411853213165E-02  4.1411853213164E-02  4.1411853215346E-02  4.1411853217529E-02 
 4.1411853208435E-02  4.1411853210801E-02  4.1411853213166E-02  4.1411853213165E-02  4.1411853211221E-02  4.1411853211221E-02  4.1411853213165E-02  4.1411853213164E-02  4.1411853215346E-02  4.1411853217529E-02 
 0.0000000000000E+00  0.0000000000000E+00  0.0000000000000E+00  0.0000000000000E+00  0.0000000000000E+00  0.0000000000000E+00  0.0000000000000E+00  0.0000000000000E+00  0.0000000000000E+00  0.0000000000000E+00 
ZONE T = "SEP , 5.2258E-07", I = 10, SOLUTIONTIME = 5.225781E-07
ZONETYPE = ORDERED
DATAPACKING = BLOCK
STRANDID = 2
 7.8740000000000E-04  8.4102222222222E-04  8.9464444444444E-04  9.4826666666667E-04  1.0018888888889E-03  1.0555111111111E-03  1.1091333333333E-03  1.1627555555556E-03  1.2163777777778E-03  1.2700000000000E-03 
 2.0862563701696E-08  2.0862521186297E-08  2.0862521186297E-08  2.0862521186297E-08  2.0862521186297E-08  2.0862521186297E-08  2.0862521186297E-08  2.0862521186297E-08  2.0862563701696E-08  1.9704835872271E-08 
 9.1999999998253E-01  9.1999999999999E-01  9.2000000000000E-01  9.2000000000000E-01  9.2000000000000E-01  9.2000000000000E-01  9.2000000000000E-01  9.2000000000000E-01  9.2000000000002E-01  9.2000000001957E-01 
 4.0000000008733E-02  4.0000000000007E-02  4.0000000000000E-02  4.0000000000000E-02  4.0000000000000E-02  4.0000000000000E-02  4.0000000000000E-02  4.0000000000000E-02  3.9999999999992E-02  3.9999999990216E-02 
 4.0000000008733E-02  4.0000000000007E-02  4.0000000000000E-02  4.0000000000000E-02  4.0000000000000E-02  4.0000000000000E-02  4.0000000000000E-02  4.0000000000000E-02  3.9999999999992E-02  3.9999999990216E-02 
 2.9166140201251E-02  2.9166066289420E-02  2.9165992377590E-02  2.9165918465760E-02  2.9165844553929E-02  2.9165770642099E-02  2.9165696730268E-02  2.9165622818438E-02  2.9165548906607E-02  2.9165474994777E-02 
 2.1640923350367E-08  2.1640923350941E-08  2.1640923351678E-08  2.1640923351750E-08  2.1640923351922E-08  2.1640923351951E-08  2.1640923351779E-08  2.1640923351844E-08  2.1640923352598E-08  2.1640923353349E-08 
 4.1411853190475E-02  4.1411853192103E-02  4.1411853193728E-02  4.1411853193726E-02  4.1411853195670E-02  4.1411853195670E-02  4.1411853193726E-02  4.1411853193724E-02  4.1411853197021E-02  4.1411853200321E-02 
 4.1411853190475E-02  4.1411853192103E-02  4.1411853193728E-02  4.1411853193726E-02  4.1411853195670E-02  4.1411853195670E-02  4.1411853193726E-02  4.1411853193724E-02  4.1411853197021E-02  4.1411853200321E-02 
 0.0000000000000E+00  0.0000000000000E+00  0.0000000000000E+00  0.0000000000000E+00  0.0000000000000E+00  0.0000000000000E+00  0.0000000000000E+00  0.0000000000000E+00  0.0000000000000E+00  0.0000000000000E+00 
ZONE T = "SEP , 7.7887E-07", I = 10, SOLUTIONTIME = 7.788672E-07
ZONETYPE = ORDERED
DATAPACKING = BLOCK
STRANDID = 2
 7.8740000000000E-04  8.4102222222222E-04  8.9464444444444E-04  9.4826666666667E-04  1.0018888888889E-03  1.0555111111111E-03  1.1091333333333E-03  1.1627555555556E-03  1.2163777777778E-03  1.2700000000000E-03 
 2.0862471578268E-08  2.0862471578268E-08  2.0862471578268E-08  2.0862471578268E-08  2.0862471578268E-08  2.0862471578268E-08  2.0862471578268E-08  2.0862471578268E-08  2.0862443234668E-08  1.9704715405493E-08 
 9.1999999997398E-01  9.1999999999997E-01  9.2000000000000E-01  9.2000000000000E-01  9.2000000000000E-01  9.2000000000000E-01  9.2000000000000E-01  9.2000000000000E-01  9.2000000000004E-01  9.2000000002916E-01 
 4.0000000013012E-02  4.0000000000017E-02  4.0000000000000E-02  4.0000000000000E-02  4.0000000000000E-02  4.0000000000000E-02  4.0000000000000E-02  4.0000000000000E-02  3.9999999999981E-02  3.9999999985421E-02 
 4.0000000013012E-02  4.0000000000017E-02  4.0000000000000E-02  4.0000000000000E-02  4.0000000000000E-02  4.0000000000000E-02  4.0000000000000E-02  4.0000000000000E-02  3.9999999999981E-02  3.9999999985421E-02 
 2.9166140196443E-02  2.9166066284613E-02  2.9165992372782E-02  2.9165918460952E-02  2.9165844549122E-02  2.9165770637291E-02  2.9165696725461E-02  2.9165622813630E-02  2.9165548901800E-02  2.9165474989970E-02 
 3.2254328373539E-08  3.2254328375243E-08  3.2254328376611E-08  3.2254328376681E-08  3.2254328376853E-08  3.2254328376384E-08  3.2254328376711E-08  3.2254328376774E-08  3.2254328378054E-08  3.2254328379831E-08 
 4.1411853161593E-02  4.1411853166000E-02  4.1411853168460E-02  4.1411853168456E-02  4.1411853168456E-02  4.1411853166512E-02  4.1411853168456E-02  4.1411853168451E-02  4.1411853170505E-02  4.1411853174507E-02 
 4.1411853161593E-02  4.1411853166000E-02  4.1411853168460E-02  4.1411853168456E-02  4.1411853168456E-02  4.1411853166512E-02  4.1411853168456E-02  4.1411853168451E-02  4.1411853170505E-02  4.1411853174507E-02 
 0.0000000000000E+00  0.0000000000000E+00  0.0000000000000E+00  0.0000000000000E+00  0.0000000000000E+00  0.0000000000000E+00  0.0000000000000E+00  0.0000000000000E+00  0.0000000000000E+00  0.0000000000000E+00 
ZONE T = "SEP , 1.1633E-06", I = 10, SOLUTIONTIME = 1.163301E-06
ZONETYPE = ORDERED
DATAPACKING = BLOCK
STRANDID = 2
 7.8740000000000E-04  8.4102222222222E-04  8.9464444444444E-04  9.4826666666667E-04  1.0018888888889E-03  1.0555111111111E-03  1.1091333333333E-03  1.1627555555556E-03  1.2163777777778E-03  1.2700000000000E-03 
 2.0862698316975E-08  2.0862717212708E-08  2.0862717212708E-08  2.0862717212708E-08  2.0862717212708E-08  2.0862717212708E-08  2.0862717212708E-08  2.0862717212708E-08  2.0862736108441E-08  1.9705008279641E-08 
 9.1999999996115E-01  9.1999999999993E-01  9.2000000000000E-01  9.2000000000000E-01  9.2000000000000E-01  9.2000000000000E-01  9.2000000000000E-01  9.2000000000000E-01  9.2000000000008E-01  9.2000000004353E-01 