TITLE = "Solution on Domain BulkDomain1D_2"
VARIABLES = "x [m]"  
"Vel_axial(0)" 	"MF_sp(ECDMC)" 	"MF_sp(Li+)" 	"MF_sp(PF6-)" 	"Volt(Electroly)" 	"Volt(CathodeVo)" 	
"Potential Drop Electrode-Electrolyte [V]" 	"Surf_0 Equilibrium Potential Drop Electrode-Electrolyte [V]" 	"Overpotential_0 [V]" 	"Current Source [A/m^2]" 	"Li+ flux [kmol/m^2/s]" 	"Electrolyte Current [A/m^2]" 	"Electrode Current [A/m^2]" 	
"Capacity discharged [A-s]" 	"Depth of discharge [-]" 	"Capacity remaining [A-s]" 	"Initial capacity [A-s]" 	"Porosity []" 	"Surface Area [m2/m2] (area per area)" 	"Specific current (per particle area) [A/m^2]" 	"Control volume thickness [m]" 	
"Moles LiCoO2 [mol/m^2] (per electrode area)" 	"Moles CoO2 [mol/m^2] (per electrode area)" 	

ZONE T = "t = 0 [s]" I = 10 SOLUTIONTIME = 0.0000000000000E+00
0.00127 	0 	0.92 	0.04 	0.04 	-0.07 	3.8 	
0 	0 	0 	0 	0 	0.240609 	0 	
0 	0 	0 	0 	0.35 	6.604 	-0.0728677 	3.38667e-05 	
0.000900955 	0.000600637 	
0.00133773 	0 	0.92 	0.04 	0.04 	-0.07 	3.8 	
0 	0 	0 	0 	0 	0 	-0 	
0 	0 	0 	0 	0.35 	13.208 	-0.0728677 	6.77333e-05 	
0.00180191 	0.00120127 	
0.00140547 	0 	0.92 	0.04 	0.04 	-0.07 	3.8 	
0 	0 	0 	0 	0 	0 	-0 	
0 	0 	0 	0 	0.35 	13.208 	-0.0728677 	6.77333e-05 	
0.00180191 	0.00120127 	
0.0014732 	0 	0.92 	0.04 	0.04 	-0.07 	3.8 	
0 	0 	0 	0 	0 	0 	-0 	
0 	0 	0 	0 	0.35 	13.208 	-0.0728677 	6.77333e-05 	
0.00180191 	0.00120127 	
0.00154093 	0 	0.92 	0.04 	0.04 	-0.07 	3.8 	
0 	0 	0 	0 	0 	0 	-0 	
0 	0 	0 	0 	0.35 	13.208 	-0.0728677 	6.77333e-05 	
0.00180191 	0.00120127 	
0.00160867 	0 	0.92 	0.04 	0.04 	-0.07 	3.8 	
0 	0 	0 	0 	0 	0 	-0 	
0 	0 	0 	0 	0.35 	13.208 	-0.0728677 	6.77333e-05 	
0.00180191 	0.00120127 	
0.0016764 	0 	0.92 	0.04 	0.04 	-0.07 	3.8 	
0 	0 	0 	0 	0 	0 	-0 	
0 	0 	0 	0 	0.35 	13.208 	-0.0728677 	6.77333e-05 	
0.00180191 	0.00120127 	
0.00174413 	0 	0.92 	0.04 	0.04 	-0.07 	3.8 	
0 	0 	0 	0 	0 	0 	-0 	
0 	0 	0 	0 	0.35 	13.208 	-0.0728677 	6.77333e-05 	
0.00180191 	0.00120127 	
0.00181187 	0 	0.92 	0.04 	0.04 	-0.07 	3.8 	
0 	0 	0 	0 	0 	0 	-0 	
0 	0 	0 	0 	0.35 	13.208 	-0.0728677 	6.77333e-05 	
0.00180191 	0.00120127 	
0.0018796 	0 	0.92 	0.04 	0.04 	-0.07 	3.8 	
0 	0 	0 	0 	0 	0 	0.240609 	
0 	0 	0 	0 	0.35 	6.604 	-0.0728677 	3.38667e-05 	
0.000900955 	0.000600637 	
ZONE T = "t = 1e-08 [s]" I = 10 SOLUTIONTIME = 1.0000000000000E-08
0.00127 	2.77842e-08 	0.92 	0.04 	0.04 	0.011341 	3.80013 	
3.87 	3.97141 	-0.101414 	-0.481218 	-0 	41.191 	1.17579 	
-1.20738e-11 	7244.08 	123.593 	141.768 	0.35 	6.604 	-0.357234 	3.38667e-05 	
0.000900955 	0.000600637 	
0.00133773 	2.45182e-08 	0.92 	0.04 	0.04 	0.0113407 	3.80013 	
3.87 	3.97141 	-0.101414 	-0.962436 	-0 	37.6598 	4.70323 	
-2.41475e-11 	14488.2 	247.185 	283.536 	0.35 	13.208 	-0.357243 	6.77333e-05 	
0.00180191 	0.00120127 	
0.00140547 	2.12519e-08 	0.92 	0.04 	0.04 	0.0113404 	3.80012 	
3.87 	3.97141 	-0.101414 	-0.962436 	-0 	32.9563 	9.40672 	
-2.41475e-11 	14488.2 	247.185 	283.536 	0.35 	13.208 	-0.357275 	6.77333e-05 	
0.00180191 	0.00120127 	
0.0014732 	1.79851e-08 	0.92 	0.04 	0.04 	0.0113402 	3.80011 	
3.87 	3.97141 	-0.101414 	-0.962436 	-0 	28.2522 	14.1108 	
-2.41475e-11 	14488.2 	247.185 	283.536 	0.35 	13.208 	-0.357328 	6.77333e-05 	
0.00180191 	0.00120127 	
0.00154093 	1.47177e-08 	0.92 	0.04 	0.04 	0.01134 	3.8001 	
3.87 	3.97141 	-0.101414 	-0.962436 	-0 	23.5473 	18.8157 	
-2.41475e-11 	14488.2 	247.185 	283.536 	0.35 	13.208 	-0.357405 	6.77333e-05 	
0.00180191 	0.00120127 	
0.00160867 	1.14493e-08 	0.92 	0.04 	0.04 	0.0113398 	3.80009 	
3.87 	3.97141 	-0.101414 	-0.962436 	-0 	18.8413 	23.5217 	
-2.41475e-11 	14488.2 	247.185 	283.536 	0.35 	13.208 	-0.357504 	6.77333e-05 	
0.00180191 	0.00120127 	
0.0016764 	8.17992e-09 	0.92 	0.04 	0.04 	0.0113397 	3.80007 	
3.87 	3.97141 	-0.101414 	-0.962436 	-0 	14.1339 	28.2291 	
-2.41475e-11 	14488.2 	247.185 	283.536 	0.35 	13.208 	-0.357625 	6.77333e-05 	
0.00180191 	0.00120127 	
0.00174413 	4.90919e-09 	0.92 	0.04 	0.04 	0.0113396 	3.80005 	
3.87 	3.97141 	-0.101414 	-0.962436 	-0 	9.42468 	32.9383 	
-2.41475e-11 	14488.2 	247.185 	283.536 	0.35 	13.208 	-0.357768 	6.77333e-05 	
0.00180191 	0.00120127 	
0.00181187 	1.63696e-09 	0.92 	0.04 	0.04 	0.0113396 	3.80003 	
3.87 	3.97141 	-0.101414 	-0.962436 	-0 	4.71349 	37.6495 	
-2.41475e-11 	14488.2 	247.185 	283.536 	0.35 	13.208 	-0.357935 	6.77333e-05 	
0.00180191 	0.00120127 	
0.0018796 	0 	0.92 	0.04 	0.04 	0.0113396 	3.8 	
3.87 	3.97141 	-0.101414 	-0.481218 	-0 	1.17868 	41.1882 	
-1.20738e-11 	7244.08 	123.593 	141.768 	0.35 	6.604 	-0.358124 	3.38667e-05 	
0.000900955 	0.000600637 	
ZONE T = "t = 2e-08 [s]" I = 10 SOLUTIONTIME = 2.0000000000000E-08
0.00127 	1.97199e-08 	0.92 	0.04 	0.04 	0.0291555 	3.80009 	
3.78879 	3.97141 	-0.182626 	-2.35917 	2.07345e-07 	29.2331 	0.834725 	
-5.91917e-11 	7244.08 	123.593 	141.768 	0.35 	6.604 	-0.252815 	3.38667e-05 	
0.000900955 	0.000600637 	
0.00133773 	1.74013e-08 	0.92 	0.04 	0.04 	0.0291553 	3.80009 	
3.78879 	3.97141 	-0.182627 	-4.71847 	1.82971e-07 	26.7288 	3.33893 	
-1.18386e-10 	14488.2 	247.185 	283.536 	0.35 	13.208 	-0.25282 	6.77333e-05 	
0.00180191 	0.00120127 	
0.00140547 	1.50826e-08 	0.92 	0.04 	0.04 	0.0291551 	3.80009 	
3.78878 	3.97141 	-0.182632 	-4.71888 	1.58596e-07 	23.3897 	6.678 	
-1.18397e-10 	14488.2 	247.185 	283.536 	0.35 	13.208 	-0.252836 	6.77333e-05 	
0.00180191 	0.00120127 	
0.0014732 	1.27636e-08 	0.92 	0.04 	0.04 	0.0291549 	3.80008 	
3.78877 	3.97141 	-0.18264 	-4.71959 	1.34217e-07 	20.0504 	10.0173 	
-1.18415e-10 	14488.2 	247.185 	283.536 	0.35 	13.208 	-0.252863 	6.77333e-05 	
0.00180191 	0.00120127 	
0.00154093 	1.04443e-08 	0.92 	0.04 	0.04 	0.0291548 	3.80007 	
3.78876 	3.97141 	-0.182651 	-4.7206 	1.09833e-07 	16.7106 	13.3571 	
-1.1844e-10 	14488.2 	247.185 	283.536 	0.35 	13.208 	-0.252901 	6.77333e-05 	
0.00180191 	0.00120127 	
0.00160867 	8.12447e-09 	0.92 	0.04 	0.04 	0.0291547 	3.80006 	
3.78875 	3.97141 	-0.182665 	-4.72191 	8.54429e-08 	13.3702 	16.6975 	
-1.18473e-10 	14488.2 	247.185 	283.536 	0.35 	13.208 	-0.252951 	6.77333e-05 	
0.00180191 	0.00120127 	
0.0016764 	5.80411e-09 	0.92 	0.04 	0.04 	0.0291546 	3.80005 	
3.78873 	3.97141 	-0.182682 	-4.72351 	6.10442e-08 	10.0291 	20.0386 	
-1.18513e-10 	14488.2 	247.185 	283.536 	0.35 	13.208 	-0.253012 	6.77333e-05 	
0.00180191 	0.00120127 	
0.00174413 	3.4831e-09 	0.92 	0.04 	0.04 	0.0291545 	3.80004 	
3.78871 	3.97141 	-0.182703 	-4.72541 	3.66357e-08 	6.68717 	23.3805 	
-1.1856e-10 	14488.2 	247.185 	283.536 	0.35 	13.208 	-0.253084 	6.77333e-05 	
0.00180191 	0.00120127 	
0.00181187 	1.16132e-09 	0.92 	0.04 	0.04 	0.0291545 	3.80002 	
3.78869 	3.97141 	-0.182727 	-4.7276 	1.22162e-08 	3.34417 	26.7235 	
-1.18616e-10 	14488.2 	247.185 	283.536 	0.35 	13.208 	-0.253167 	6.77333e-05 	
0.00180191 	0.00120127 	
0.0018796 	0 	0.92 	0.04 	0.04 	0.0291545 	3.8 	
3.78866 	3.97141 	-0.182754 	-2.36505 	1.22162e-08 	0.836199 	29.2316 	
-5.93391e-11 	7244.08 	123.593 	141.768 	0.35 	6.604 	-0.253262 	3.38667e-05 	
0.000900955 	0.000600637 	
ZONE T = "t = 3e-08 [s]" I = 10 SOLUTIONTIME = 3.0000000000000E-08
0.00127 	1.97199e-08 	0.92 	0.04 	0.04 	0.0291556 	3.80009 	
3.77094 	3.97141 	-0.200478 	-1.66959 	1.47164e-07 	29.233 	0.834723 	
-1.01082e-10 	7244.08 	123.593 	141.768 	0.35 	6.604 	-0.252816 	3.38667e-05 	
0.000900955 	0.000600637 	
0.00133773 	1.74013e-08 	0.92 	0.04 	0.04 	0.0291554 	3.80009 	
3.77094 	3.97141 	-0.200479 	-3.33925 	1.29861e-07 	26.7287 	3.33892 	
-2.02168e-10 	14488.2 	247.185 	283.536 	0.35 	13.208 	-0.252821 	6.77333e-05 	
0.00180191 	0.00120127 	
0.00140547 	1.50826e-08 	0.92 	0.04 	0.04 	0.0291552 	3.80009 	
3.77093 	3.97141 	-0.200482 	-3.33946 	1.12557e-07 	23.3897 	6.67798 	
-2.02184e-10 	14488.2 	247.185 	283.536 	0.35 	13.208 	-0.252836 	6.77333e-05 	
0.00180191 	0.00120127 	
0.0014732 	1.27636e-08 	0.92 	0.04 	0.04 	0.029155 	3.80008 	
3.77093 	3.97141 	-0.200488 	-3.33981 	9.52507e-08 	20.0503 	10.0173 	
-2.02211e-10 	14488.2 	247.185 	283.536 	0.35 	13.208 	-0.252863 	6.77333e-05 	
0.00180191 	0.00120127 	
0.00154093 	1.04442e-08 	0.92 	0.04 	0.04 	0.0291549 	3.80007 	
3.77092 	3.97141 	-0.200496 	-3.34032 	7.79422e-08 	16.7106 	13.3571 	
-2.02249e-10 	14488.2 	247.185 	283.536 	0.35 	13.208 	-0.252902 	6.77333e-05 	
0.00180191 	0.00120127 	
0.00160867 	8.12446e-09 	0.92 	0.04 	0.04 	0.0291548 	3.80006 	
3.77091 	3.97141 	-0.200506 	-3.34097 	6.06303e-08 	13.3702 	16.6974 	
-2.02298e-10 	14488.2 	247.185 	283.536 	0.35 	13.208 	-0.252951 	6.77333e-05 	
0.00180191 	0.00120127 	
0.0016764 	5.80411e-09 	0.92 	0.04 	0.04 	0.0291547 	3.80005 	
3.7709 	3.97141 	-0.200518 	-3.34178 	4.33143e-08 	10.0291 	20.0385 	
-2.02358e-10 	14488.2 	247.185 	283.536 	0.35 	13.208 	-0.253012 	6.77333e-05 	
0.00180191 	0.00120127 	
0.00174413 	3.4831e-09 	0.92 	0.04 	0.04 	0.0291546 	3.80004 	
3.77088 	3.97141 	-0.200533 	-3.34273 	2.59933e-08 	6.68716 	23.3805 	
-2.0243e-10 	14488.2 	247.185 	283.536 	0.35 	13.208 	-0.253084 	6.77333e-05 	
0.00180191 	0.00120127 	
0.00181187 	1.16132e-09 	0.92 	0.04 	0.04 	0.0291546 	3.80002 	
3.77086 	3.97141 	-0.20055 	-3.34383 	8.66659e-09 	3.34417 	26.7235 	
-2.02512e-10 	14488.2 	247.185 	283.536 	0.35 	13.208 	-0.253168 	6.77333e-05 	
0.00180191 	0.00120127 	
0.0018796 	0 	0.92 	0.04 	0.04 	0.0291546 	3.8 	
3.77085 	3.97141 	-0.200569 	-1.67254 	8.66659e-09 	0.836199 	29.2315 	
-1.01303e-10 	7244.08 	123.593 	141.768 	0.35 	6.604 	-0.253263 	3.38667e-05 	
0.000900955 	0.000600637 	
ZONE T = "t = 4e-08 [s]" I = 10 SOLUTIONTIME = 4.0000000000000E-08
0.00127 	1.97216e-08 	0.92 	0.04 	0.04 	0.0291555 	3.80009 	
3.77094 	3.97141 	-0.200478 	-1.6696 	1.47164e-07 	29.2355 	0.834797 	
-1.42972e-10 	7244.08 	123.593 	141.768 	0.35 	6.604 	-0.252816 	3.38667e-05 	
0.000900955 	0.000600637 	
0.00133773 	1.74028e-08 	0.92 	0.04 	0.04 	0.0291553 	3.80009 	
3.77094 	3.97141 	-0.200479 	-3.33925 	1.2986e-07 	26.7311 	3.33922 	
-2.8595e-10 	14488.2 	247.185 	283.536 	0.35 	13.208 	-0.25282 	6.77333e-05 	
0.00180191 	0.00120127 	
0.00140547 	1.50839e-08 	0.92 	0.04 	0.04 	0.0291551 	3.80009 	
3.77093 	3.97141 	-0.200482 	-3.33946 	1.12556e-07 	23.3917 	6.67857 	
-2.85971e-10 	14488.2 	247.185 	283.536 	0.35 	13.208 	-0.252836 	6.77333e-05 	
0.00180191 	0.00120127 	
0.0014732 	1.27647e-08 	0.92 	0.04 	0.04 	0.029155 	3.80008 	
3.77093 	3.97141 	-0.200488 	-3.33982 	9.52506e-08 	20.0521 	10.0182 	
-2.86007e-10 	14488.2 	247.185 	283.536 	0.35 	13.208 	-0.252863 	6.77333e-05 	
0.00180191 	0.00120127 	
0.00154093 	1.04452e-08 	0.92 	0.04 	0.04 	0.0291549 	3.80007 	
3.77092 	3.97141 	-0.200496 	-3.34033 	7.79421e-08 	16.712 	13.3583 	
-2.86057e-10 	14488.2 	247.185 	283.536 	0.35 	13.208 	-0.252901 	6.77333e-05 	
0.00180191 	0.00120127 	
0.00160867 	8.12518e-09 	0.92 	0.04 	0.04 	0.0291547 	3.80006 	
3.77091 	3.97141 	-0.200506 	-3.34098 	6.06303e-08 	13.3714 	16.6989 	
-2.86123e-10 	14488.2 	247.185 	283.536 	0.35 	13.208 	-0.252951 	6.77333e-05 	
0.00180191 	0.00120127 	
0.0016764 	5.80462e-09 	0.92 	0.04 	0.04 	0.0291547 	3.80005 	
3.7709 	3.97141 	-0.200518 	-3.34179 	4.33142e-08 	10.03 	20.0403 	
-2.86203e-10 	14488.2 	247.185 	283.536 	0.35 	13.208 	-0.253012 	6.77333e-05 	
0.00180191 	0.00120127 	
0.00174413 	3.48341e-09 	0.92 	0.04 	0.04 	0.0291546 	3.80004 	
3.77088 	3.97141 	-0.200533 	-3.34274 	2.59933e-08 	6.68775 	23.3826 	
-2.86299e-10 	14488.2 	247.185 	283.536 	0.35 	13.208 	-0.253084 	6.77333e-05 	
0.00180191 	0.00120127 	
0.00181187 	1.16143e-09 	0.92 	0.04 	0.04 	0.0291546 	3.80002 	
3.77086 	3.97141 	-0.20055 	-3.34384 	8.66659e-09 	3.34446 	26.7259 	
-2.86409e-10 	14488.2 	247.185 	283.536 	0.35 	13.208 	-0.253168 	6.77333e-05 	
0.00180191 	0.00120127 	
0.0018796 	0 	0.92 	0.04 	0.04 	0.0291545 	3.8 	
3.77085 	3.97141 	-0.200569 	-1.67255 	8.66659e-09 	0.836272 	29.234 	
-1.43267e-10 	7244.08 	123.593 	141.768 	0.35 	6.604 	-0.253262 	3.38667e-05 	
0.000900955 	0.000600637 	
ZONE T = "t = 5.5e-08 [s]" I = 10 SOLUTIONTIME = 5.5000000000000E-08
0.00127 	1.97216e-08 	0.92 	0.04 	0.04 	0.0291555 	3.80009 	
3.77094 	3.97141 	-0.200478 	-1.66959 	1.47177e-07 	29.2355 	0.834797 	
-1.84862e-10 	7244.08 	123.593 	141.768 	0.35 	6.604 	-0.252816 	3.38667e-05 	
0.000900955 	0.000600637 	
0.00133773 	1.74028e-08 	0.92 	0.04 	0.04 	0.0291553 	3.80009 	
3.77094 	3.97141 	-0.200479 	-3.33925 	1.29872e-07 	26.7311 	3.33922 	
-3.69732e-10 	14488.2 	247.185 	283.536 	0.35 	13.208 	-0.25282 	6.77333e-05 	
0.00180191 	0.00120127 	
0.00140547 	1.50839e-08 	0.92 	0.04 	0.04 	0.0291551 	3.80009 	
3.77093 	3.97141 	-0.200482 	-3.33946 	1.12566e-07 	23.3917 	6.67857 	
-3.69758e-10 	14488.2 	247.185 	283.536 	0.35 	13.208 	-0.252836 	6.77333e-05 	
0.00180191 	0.00120127 	
0.0014732 	1.27647e-08 	0.92 	0.04 	0.04 	0.029155 	3.80008 	
3.77093 	3.97141 	-0.200488 	-3.33982 	9.5259e-08 	20.0521 	10.0182 	
-3.69803e-10 	14488.2 	247.185 	283.536 	0.35 	13.208 	-0.252863 	6.77333e-05 	
0.00180191 	0.00120127 	
0.00154093 	1.04452e-08 	0.92 	0.04 	0.04 	0.0291549 	3.80007 	
3.77092 	3.97141 	-0.200496 	-3.34032 	7.7949e-08 	16.712 	13.3583 	
-3.69866e-10 	14488.2 	247.185 	283.536 	0.35 	13.208 	-0.252901 	6.77333e-05 	
0.00180191 	0.00120127 	
0.00160867 	8.12518e-09 	0.92 	0.04 	0.04 	0.0291547 	3.80006 	
3.77091 	3.97141 	-0.200506 	-3.34098 	6.06356e-08 	13.3714 	16.6989 	
-3.69948e-10 	14488.2 	247.185 	283.536 	0.35 	13.208 	-0.252951 	6.77333e-05 	
0.00180191 	0.00120127 	
0.0016764 	5.80462e-09 	0.92 	0.04 	0.04 	0.0291547 	3.80005 	
3.7709 	3.97141 	-0.200518 	-3.34178 	4.33181e-08 	10.03 	20.0403 	
-3.70049e-10 	14488.2 	247.185 	283.536 	0.35 	13.208 	-0.253012 	6.77333e-05 	
0.00180191 	0.00120127 	
0.00174413 	3.48341e-09 	0.92 	0.04 	0.04 	0.0291546 	3.80004 	
3.77088 	3.97141 	-0.200533 	-3.34274 	2.59956e-08 	6.68775 	23.3826 	
-3.70168e-10 	14488.2 	247.185 	283.536 	0.35 	13.208 	-0.253084 	6.77333e-05 	
0.00180191 	0.00120127 	
0.00181187 	1.16143e-09 	0.92 	0.04 	0.04 	0.0291546 	3.80002 	
3.77086 	3.97141 	-0.20055 	-3.34384 	8.66735e-09 	3.34446 	26.7259 	
-3.70306e-10 	14488.2 	247.185 	283.536 	0.35 	13.208 	-0.253168 	6.77333e-05 	
0.00180191 	0.00120127 	
0.0018796 	0 	0.92 	0.04 	0.04 	0.0291545 	3.8 	
3.77085 	3.97141 	-0.200569 	-1.67254 	8.66735e-09 	0.836272 	29.234 	
-1.85232e-10 	7244.08 	123.593 	141.768 	0.35 	6.604 	-0.253262 	3.38667e-05 	
0.000900955 	0.000600637 	
ZONE T = "t = 7.75e-08 [s]" I = 10 SOLUTIONTIME = 7.7500000000000E-08
0.00127 	1.97216e-08 	0.92 	0.04 	0.04 	0.0291555 	3.80009 	
3.77094 	3.97141 	-0.200478 	-1.66959 	1.47177e-07 	29.2355 	0.834797 	
-2.47697e-10 	7244.08 	123.593 	141.768 	0.35 	6.604 	-0.252816 	3.38667e-05 	
0.000900955 	0.000600637 	
0.00133773 	1.74028e-08 	0.92 	0.04 	0.04 	0.0291553 	3.80009 	
3.77094 	3.97141 	-0.200479 	-3.33925 	1.29872e-07 	26.7311 	3.33922 	
-4.95404e-10 	14488.2 	247.185 	283.536 	0.35 	13.208 	-0.25282 	6.77333e-05 	
0.00180191 	0.00120127 	
0.00140547 	1.50839e-08 	0.92 	0.04 	0.04 	0.0291551 	3.80009 	
3.77093 	3.97141 	-0.200482 	-3.33946 	1.12566e-07 	23.3917 	6.67857 	
-4.95438e-10 	14488.2 	247.185 	283.536 	0.35 	13.208 	-0.252836 	6.77333e-05 	
0.00180191 	0.00120127 	
0.0014732 	1.27647e-08 	0.92 	0.04 	0.04 	0.029155 	3.80008 	
3.77093 	3.97141 	-0.200488 	-3.33982 	9.5259e-08 	20.0521 	10.0182 	
-4.95497e-10 	14488.2 	247.185 	283.536 	0.35 	13.208 	-0.252863 	6.77333e-05 	
0.00180191 	0.00120127 	
0.00154093 	1.04452e-08 	0.92 	0.04 	0.04 	0.0291549 	3.80007 	
3.77092 	3.97141 	-0.200496 	-3.34032 	7.7949e-08 	16.712 	13.3583 	
-4.95579e-10 	14488.2 	247.185 	283.536 	0.35 	13.208 	-0.252901 	6.77333e-05 	
0.00180191 	0.00120127 	
0.00160867 	8.12518e-09 	0.92 	0.04 	0.04 	0.0291547 	3.80006 	
3.77091 	3.97141 	-0.200506 	-3.34098 	6.06356e-08 	13.3714 	16.6989 	
-4.95686e-10 	14488.2 	247.185 	283.536 	0.35 	13.208 	-0.252951 	6.77333e-05 	
0.00180191 	0.00120127 	
0.0016764 	5.80462e-09 	0.92 	0.04 	0.04 	0.0291547 	3.80005 	
3.7709 	3.97141 	-0.200518 	-3.34178 	4.33181e-08 	10.03 	20.0403 	
-4.95817e-10 	14488.2 	247.185 	283.536 	0.35 	13.208 	-0.253012 	6.77333e-05 	
0.00180191 	0.00120127 	
0.00174413 	3.48341e-09 	0.92 	0.04 	0.04 	0.0291546 	3.80004 	
3.77088 	3.97141 	-0.200533 	-3.34274 	2.59956e-08 	6.68775 	23.3826 	
-4.95972e-10 	14488.2 	247.185 	283.536 	0.35 	13.208 	-0.253084 	6.77333e-05 	
0.00180191 	0.00120127 	
0.00181187 	1.16143e-09 	0.92 	0.04 	0.04 	0.0291546 	3.80002 	
3.77086 	3.97141 	-0.20055 	-3.34384 	8.66735e-09 	3.34446 	26.7259 	
-4.96152e-10 	14488.2 	247.185 	283.536 	0.35 	13.208 	-0.253168 	6.77333e-05 	
0.00180191 	0.00120127 	
0.0018796 	0 	0.92 	0.04 	0.04 	0.0291545 	3.8 	
3.77085 	3.97141 	-0.200569 	-1.67254 	8.66735e-09 	0.836272 	29.234 	
-2.48178e-10 	7244.08 	123.593 	141.768 	0.35 	6.604 	-0.253262 	3.38667e-05 	
0.000900955 	0.000600637 	
ZONE T = "t = 1.1125e-07 [s]" I = 10 SOLUTIONTIME = 1.1125000000000E-07
0.00127 	1.97216e-08 	0.92 	0.04 	0.04 	0.0291555 	3.80009 	
3.77094 	3.97141 	-0.200478 	-1.66959 	1.47177e-07 	29.2355 	0.834797 	
-3.4195e-10 	7244.08 	123.593 	141.768 	0.35 	6.604 	-0.252816 	3.38667e-05 	
0.000900955 	0.000600637 	
0.00133773 	1.74028e-08 	0.92 	0.04 	0.04 	0.0291553 	3.80009 	
3.77094 	3.97141 	-0.200479 	-3.33925 	1.29872e-07 	26.7311 	3.33922 	
-6.83913e-10 	14488.2 	247.185 	283.536 	0.35 	13.208 	-0.25282 	6.77333e-05 	
0.00180191 	0.00120127 	
0.00140547 	1.50839e-08 	0.92 	0.04 	0.04 	0.0291551 	3.80009 	
3.77093 	3.97141 	-0.200482 	-3.33946 	1.12566e-07 	23.3917 	6.67857 	
-6.83959e-10 	14488.2 	247.185 	283.536 	0.35 	13.208 	-0.252836 	6.77333e-05 	
0.00180191 	0.00120127 	
0.0014732 	1.27647e-08 	0.92 	0.04 	0.04 	0.029155 	3.80008 	
3.77093 	3.97141 	-0.200488 	-3.33982 	9.5259e-08 	20.0521 	10.0182 	
-6.84038e-10 	14488.2 	247.185 	283.536 	0.35 	13.208 	-0.252863 	6.77333e-05 	
0.00180191 	0.00120127 	
0.00154093 	1.04452e-08 	0.92 	0.04 	0.04 	0.0291549 	3.80007 	
3.77092 	3.97141 	-0.200496 	-3.34032 	7.7949e-08 	16.712 	13.3583 	
-6.84149e-10 	14488.2 	247.185 	283.536 	0.35 	13.208 	-0.252901 	6.77333e-05 	
0.00180191 	0.00120127 	
0.00160867 	8.12518e-09 	0.92 	0.04 	0.04 	0.0291547 	3.80006 	
3.77091 	3.97141 	-0.200506 	-3.34098 	6.06356e-08 	13.3714 	16.6989 	
-6.84292e-10 	14488.2 	247.185 	283.536 	0.35 	13.208 	-0.252951 	6.77333e-05 	
0.00180191 	0.00120127 	
0.0016764 	5.80462e-09 	0.92 	0.04 	0.04 	0.0291547 	3.80005 	
3.7709 	3.97141 	-0.200518 	-3.34178 	4.33181e-08 	10.03 	20.0403 	
-6.84469e-10 	14488.2 	247.185 	283.536 	0.35 	13.208 	-0.253012 	6.77333e-05 	
0.00180191 	0.00120127 	
0.00174413 	3.48341e-09 	0.92 	0.04 	0.04 	0.0291546 	3.80004 	
3.77088 	3.97141 	-0.200533 	-3.34274 	2.59956e-08 	6.68775 	23.3826 	
-6.84678e-10 	14488.2 	247.185 	283.536 	0.35 	13.208 	-0.253084 	6.77333e-05 	
0.00180191 	0.00120127 	
0.00181187 	1.16143e-09 	0.92 	0.04 	0.04 	0.0291546 	3.80002 	
3.77086 	3.97141 	-0.20055 	-3.34384 	8.66735e-09 	3.34446 	26.7259 	
-6.8492e-10 	14488.2 	247.185 	283.536 	0.35 	13.208 	-0.253168 	6.77333e-05 	
0.00180191 	0.00120127 	
0.0018796 	0 	0.92 	0.04 	0.04 	0.0291545 	3.8 	
3.77085 	3.97141 	-0.200569 	-1.67254 	8.66735e-09 	0.836272 	29.234 	
-3.42597e-10 	7244.08 	123.593 	141.768 	0.35 	6.604 	-0.253262 	3.38667e-05 	
0.000900955 	0.000600637 	
ZONE T = "t = 1.61875e-07 [s]" I = 10 SOLUTIONTIME = 1.6187500000000E-07
0.00127 	1.97216e-08 	0.92 	0.04 	0.04 	0.0291555 	3.80009 	
3.77094 	3.97141 	-0.200478 	-1.66959 	1.47178e-07 	29.2355 	0.834797 	
-4.83329e-10 	7244.08 	123.593 	141.768 	0.35 	6.604 	-0.252816 	3.38667e-05 	
0.000900955 	0.000600637 	
0.00133773 	1.74028e-08 	0.92 	0.04 	0.04 	0.0291553 	3.80009 	
3.77094 	3.97141 	-0.200479 	-3.33925 	1.29872e-07 	26.7311 	3.33922 	
-9.66677e-10 	14488.2 	247.185 	283.536 	0.35 	13.208 	-0.25282 	6.77333e-05 	
0.00180191 	0.00120127 	
0.00140547 	1.50839e-08 	0.92 	0.04 	0.04 	0.0291551 	3.80009 	
3.77093 	3.97141 	-0.200482 	-3.33946 	1.12566e-07 	23.3917 	6.67857 	
-9.6674e-10 	14488.2 	247.185 	283.536 	0.35 	13.208 	-0.252836 	6.77333e-05 	
0.00180191 	0.00120127 	
0.0014732 	1.27647e-08 	0.92 	0.04 	0.04 	0.029155 	3.80008 	
3.77093 	3.97141 	-0.200488 	-3.33982 	9.5259e-08 	20.0521 	10.0182 	
-9.66849e-10 	14488.2 	247.185 	283.536 	0.35 	13.208 	-0.252863 	6.77333e-05 	
0.00180191 	0.00120127 	
0.00154093 	1.04452e-08 	0.92 	0.04 	0.04 	0.0291549 	3.80007 	
3.77092 	3.97141 	-0.200496 	-3.34032 	7.7949e-08 	16.712 	13.3583 	
-9.67003e-10 	14488.2 	247.185 	283.536 	0.35 	13.208 	-0.252901 	6.77333e-05 	
0.00180191 	0.00120127 	
0.00160867 	8.12518e-09 	0.92 	0.04 	0.04 	0.0291547 	3.80006 	
3.77091 	3.97141 	-0.200506 	-3.34098 	6.06356e-08 	13.3714 	16.6989 	
-9.67202e-10 	14488.2 	247.185 	283.536 	0.35 	13.208 	-0.252951 	6.77333e-05 	
0.00180191 	0.00120127 	
0.0016764 	5.80462e-09 	0.92 	0.04 	0.04 	0.0291547 	3.80005 	
3.7709 	3.97141 	-0.200518 	-3.34178 	4.33181e-08 	10.03 	20.0403 	
-9.67447e-10 	14488.2 	247.185 	283.536 	0.35 	13.208 	-0.253012 	6.77333e-05 	
0.00180191 	0.00120127 	
0.00174413 	3.48341e-09 	0.92 	0.04 	0.04 	0.0291546 	3.80004 	
3.77088 	3.97141 	-0.200533 	-3.34274 	2.59956e-08 	6.68775 	23.3826 	
-9.67736e-10 	14488.2 	247.185 	283.536 	0.35 	13.208 	-0.253084 	6.77333e-05 	
0.00180191 	0.00120127 	
0.00181187 	1.16143e-09 	0.92 	0.04 	0.04 	0.0291546 	3.80002 	
3.77086 	3.97141 	-0.20055 	-3.34384 	8.66735e-09 	3.34446 	26.7259 	
-9.68072e-10 	14488.2 	247.185 	283.536 	0.35 	13.208 	-0.253168 	6.77333e-05 	
0.00180191 	0.00120127 	
0.0018796 	0 	0.92 	0.04 	0.04 	0.0291545 	3.8 	
3.77085 	3.97141 	-0.200569 	-1.67254 	8.66735e-09 	0.836272 	29.234 	
-4.84226e-10 	7244.08 	123.593 	141.768 	0.35 	6.604 	-0.253262 	3.38667e-05 	
0.000900955 	0.000600637 	
ZONE T = "t = 2.37813e-07 [s]" I = 10 SOLUTIONTIME = 2.3781250000000E-07
0.00127 	1.97216e-08 	0.92 	0.04 	0.04 	0.0291555 	3.80009 	
3.77094 	3.97141 	-0.200478 	-1.66959 	1.47179e-07 	29.2355 	0.834797 	
-6.95398e-10 	7244.08 	123.593 	141.768 	0.35 	6.604 	-0.252816 	3.38667e-05 	
0.000900955 	0.000600637 	
0.00133773 	1.74028e-08 	0.92 	0.04 	0.04 	0.0291553 	3.80009 	
3.77094 	3.97141 	-0.200479 	-3.33925 	1.29872e-07 	26.7311 	3.33922 	
-1.39082e-09 	14488.2 	247.185 	283.536 	0.35 	13.208 	-0.25282 	6.77333e-05 	
0.00180191 	0.00120127 	
0.00140547 	1.50839e-08 	0.92 	0.04 	0.04 	0.0291551 	3.80009 	
3.77093 	3.97141 	-0.200482 	-3.33946 	1.12566e-07 	23.3917 	6.67857 	
-1.39091e-09 	14488.2 	247.185 	283.536 	0.35 	13.208 	-0.252836 	6.77333e-05 	
0.00180191 	0.00120127 	
0.0014732 	1.27647e-08 	0.92 	0.04 	0.04 	0.029155 	3.80008 	
3.77093 	3.97141 	-0.200488 	-3.33982 	9.5259e-08 	20.0521 	10.0182 	
-1.39107e-09 	14488.2 	247.185 	283.536 	0.35 	13.208 	-0.252863 	6.77333e-05 	
0.00180191 	0.00120127 	
0.00154093 	1.04452e-08 	0.92 	0.04 	0.04 	0.0291549 	3.80007 	
3.77092 	3.97141 	-0.200496 	-3.34032 	7.7949e-08 	16.712 	13.3583 	
-1.39128e-09 	14488.2 	247.185 	283.536 	0.35 	13.208 	-0.252901 	6.77333e-05 	
0.00180191 	0.00120127 	
0.00160867 	8.12518e-09 	0.92 	0.04 	0.04 	0.0291547 	3.80006 	
3.77091 	3.97141 	-0.200506 	-3.34098 	6.06356e-08 	13.3714 	16.6989 	
-1.39157e-09 	14488.2 	247.185 	283.536 	0.35 	13.208 	-0.252951 	6.77333e-05 	
0.00180191 	0.00120127 	
0.0016764 	5.80462e-09 	0.92 	0.04 	0.04 	0.0291547 	3.80005 	
3.7709 	3.97141 	-0.200518 	-3.34178 	4.33181e-08 	10.03 	20.0403 	
-1.39191e-09 	14488.2 	247.185 	283.536 	0.35 	13.208 	-0.253012 	6.77333e-05 	
0.00180191 	0.00120127 	
0.00174413 	3.48341e-09 	0.92 	0.04 	0.04 	0.0291546 	3.80004 	
3.77088 	3.97141 	-0.200533 	-3.34274 	2.59956e-08 	6.68775 	23.3826 	
-1.39232e-09 	14488.2 	247.185 	283.536 	0.35 	13.208 	-0.253084 	6.77333e-05 	
0.00180191 	0.00120127 	
0.00181187 	1.16143e-09 	0.92 	0.04 	0.04 	0.0291546 	3.80002 	
3.77086 	3.97141 	-0.20055 	-3.34384 	8.66735e-09 	3.34446 	26.7259 	
-1.3928e-09 	14488.2 	247.185 	283.536 	0.35 	13.208 	-0.253168 	6.77333e-05 	
0.00180191 	0.00120127 	
0.0018796 	0 	0.92 	0.04 	0.04 	0.0291545 	3.8 	
3.77085 	3.97141 	-0.200569 	-1.67254 	8.66735e-09 	0.836272 	29.234 	
-6.9667e-10 	7244.08 	123.593 	141.768 	0.35 	6.604 	-0.253262 	3.38667e-05 	
0.000900955 	0.000600637 	
ZONE T = "t = 3.51719e-07 [s]" I = 10 SOLUTIONTIME = 3.5171875000000E-07
0.00127 	1.97216e-08 	0.92 	0.04 	0.04 	0.0291555 	3.80009 	
3.77094 	3.97141 	-0.200478 	-1.66959 	1.4718e-07 	29.2355 	0.834797 	
-1.0135e-09 	7244.08 	123.593 	141.768 	0.35 	6.604 	-0.252816 	3.38667e-05 	
0.000900955 	0.000600637 	
0.00133773 	1.74028e-08 	0.92 	0.04 	0.04 	0.0291553 	3.80009 	
3.77094 	3.97141 	-0.200479 	-3.33925 	1.29872e-07 	26.7311 	3.33922 	
-2.02704e-09 	14488.2 	247.185 	283.536 	0.35 	13.208 	-0.25282 	6.77333e-05 	
0.00180191 	0.00120127 	
0.00140547 	1.50839e-08 	0.92 	0.04 	0.04 	0.0291551 	3.80009 	
3.77093 	3.97141 	-0.200482 	-3.33946 	1.12566e-07 	23.3917 	6.67857 	
-2.02717e-09 	14488.2 	247.185 	283.536 	0.35 	13.208 	-0.252836 	6.77333e-05 	
0.00180191 	0.00120127 	
0.0014732 	1.27647e-08 	0.92 	0.04 	0.04 	0.029155 	3.80008 	
3.77093 	3.97141 	-0.200488 	-3.33982 	9.5259e-08 	20.0521 	10.0182 	
-2.02739e-09 	14488.2 	247.185 	283.536 	0.35 	13.208 	-0.252863 	6.77333e-05 	
0.00180191 	0.00120127 	
0.00154093 	1.04452e-08 	0.92 	0.04 	0.04 	0.0291549 	3.80007 	
3.77092 	3.97141 	-0.200496 	-3.34032 	7.7949e-08 	16.712 	13.3583 	
-2.02771e-09 	14488.2 	247.185 	283.536 	0.35 	13.208 	-0.252901 	6.77333e-05 	
0.00180191 	0.00120127 	
0.00160867 	8.12518e-09 	0.92 	0.04 	0.04 	0.0291547 	3.80006 	
3.77091 	3.97141 	-0.200506 	-3.34098 	6.06356e-08 	13.3714 	16.6989 	
-2.02811e-09 	14488.2 	247.185 	283.536 	0.35 	13.208 	-0.252951 	6.77333e-05 	
0.00180191 	0.00120127 	
0.0016764 	5.80462e-09 	0.92 	0.04 	0.04 	0.0291547 	3.80005 	
3.7709 	3.97141 	-0.200518 	-3.34178 	4.33181e-08 	10.03 	20.0403 	
-2.02861e-09 	14488.2 	247.185 	283.536 	0.35 	13.208 	-0.253012 	6.77333e-05 	
0.00180191 	0.00120127 	
0.00174413 	3.48341e-09 	0.92 	0.04 	0.04 	0.0291546 	3.80004 	
3.77088 	3.97141 	-0.200533 	-3.34274 	2.59956e-08 	6.68775 	23.3826 	
-2.02921e-09 	14488.2 	247.185 	283.536 	0.35 	13.208 	-0.253084 	6.77333e-05 	
0.00180191 	0.00120127 	
0.00181187 	1.16143e-09 	0.92 	0.04 	0.04 	0.0291546 	3.80002 	
3.77086 	3.97141 	-0.20055 	-3.34384 	8.66735e-09 	3.34446 	26.7259 	
-2.02989e-09 	14488.2 	247.185 	283.536 	0.35 	13.208 	-0.253168 	6.77333e-05 	
0.00180191 	0.00120127 	
0.0018796 	0 	0.92 	0.04 	0.04 	0.0291545 	3.8 	
3.77085 	3.97141 	-0.200569 	-1.67254 	8.66735e-09 	0.836272 	29.234 	
-1.01533e-09 	7244.08 	123.593 	141.768 	0.35 	6.604 	-0.253262 	3.38667e-05 	
0.000900955 	0.000600637 	
ZONE T = "t = 5.22578e-07 [s]" I = 10 SOLUTIONTIME = 5.2257812500000E-07
0.00127 	1.97216e-08 	0.92 	0.04 	0.04 	0.0291555 	3.80009 	
3.77094 	3.97141 	-0.200478 	-1.66959 	1.47181e-07 	29.2355 	0.834797 	
-1.49066e-09 	7244.08 	123.593 	141.768 	0.35 	6.604 	-0.252816 	3.38667e-05 	
0.000900955 	0.000600637 	
0.00133773 	1.74028e-08 	0.92 	0.04 	0.04 	0.0291553 	3.80009 	
3.77094 	3.97141 	-0.200479 	-3.33925 	1.29872e-07 	26.7311 	3.33922 	
-2.98137e-09 	14488.2 	247.185 	283.536 	0.35 	13.208 	-0.25282 	6.77333e-05 	
0.00180191 	0.00120127 	
0.00140547 	1.50839e-08 	0.92 	0.04 	0.04 	0.0291551 	3.80009 	
3.77093 	3.97141 	-0.200482 	-3.33946 	1.12566e-07 	23.3917 	6.67857 	
-2.98156e-09 	14488.2 	247.185 	283.536 	0.35 	13.208 	-0.252836 	6.77333e-05 	
0.00180191 	0.00120127 	
0.0014732 	1.27647e-08 	0.92 	0.04 	0.04 	0.029155 	3.80008 	
3.77093 	3.97141 	-0.200488 	-3.33982 	9.5259e-08 	20.0521 	10.0182 	
-2.98188e-09 	14488.2 	247.185 	283.536 	0.35 	13.208 	-0.252863 	6.77333e-05 	
0.00180191 	0.00120127 	
0.00154093 	1.04452e-08 	0.92 	0.04 	0.04 	0.0291549 	3.80007 	
3.77092 	3.97141 	-0.200496 	-3.34032 	7.7949e-08 	16.712 	13.3583 	
-2.98234e-09 	14488.2 	247.185 	283.536 	0.35 	13.208 	-0.252901 	6.77333e-05 	
0.00180191 	0.00120127 	
0.00160867 	8.12518e-09 	0.92 	0.04 	0.04 	0.0291547 	3.80006 	
3.77091 	3.97141 	-0.200506 	-3.34098 	6.06356e-08 	13.3714 	16.6989 	
-2.98293e-09 	14488.2 	247.185 	283.536 	0.35 	13.208 	-0.252951 	6.77333e-05 	
0.00180191 	0.00120127 	
0.0016764 	5.80462e-09 	0.92 	0.04 	0.04 	0.0291547 	3.80005 	
3.7709 	3.97141 	-0.200518 	-3.34178 	4.33181e-08 	10.03 	20.0403 	
-2.98366e-09 	14488.2 	247.185 	283.536 	0.35 	13.208 	-0.253012 	6.77333e-05 	
0.00180191 	0.00120127 	
0.00174413 	3.48341e-09 	0.92 	0.04 	0.04 	0.0291546 	3.80004 	
3.77088 	3.97141 	-0.200533 	-3.34274 	2.59956e-08 	6.68775 	23.3826 	
-2.98453e-09 	14488.2 	247.185 	283.536 	0.35 	13.208 	-0.253084 	6.77333e-05 	
0.00180191 	0.00120127 	
0.00181187 	1.16143e-09 	0.92 	0.04 	0.04 	0.0291546 	3.80002 	
3.77086 	3.97141 	-0.20055 	-3.34384 	8.66736e-09 	3.34446 	26.7259 	
-2.98553e-09 	14488.2 	247.185 	283.536 	0.35 	13.208 	-0.253168 	6.77333e-05 	
0.00180191 	0.00120127 	
0.0018796 	0 	0.92 	0.04 	0.04 	0.0291545 	3.8 	
3.77085 	3.97141 	-0.200569 	-1.67254 	8.66736e-09 	0.836272 	29.234 	
-1.49333e-09 	7244.08 	123.593 	141.768 	0.35 	6.604 	-0.253262 	3.38667e-05 	
0.000900955 	0.000600637 	
ZONE T = "t = 7.78867e-07 [s]" I = 10 SOLUTIONTIME = 7.7886718750000E-07
0.00127 	1.97216e-08 	0.92 	0.04 	0.04 	0.0291555 	3.80009 	
3.77094 	3.97141 	-0.200478 	-1.66959 	1.47183e-07 	29.2355 	0.834797 	
-2.20639e-09 	7244.08 	123.593 	141.768 	0.35 	6.604 	-0.252816 	3.38667e-05 	
0.000900955 	0.000600637 	
0.00133773 	1.74028e-08 	0.92 	0.04 	0.04 	0.0291553 	3.80009 	
3.77094 	3.97141 	-0.200479 	-3.33925 	1.29872e-07 	26.7311 	3.33922 	
-4.41286e-09 	14488.2 	247.185 	283.536 	0.35 	13.208 	-0.25282 	6.77333e-05 	
0.00180191 	0.00120127 	
0.00140547 	1.50839e-08 	0.92 	0.04 	0.04 	0.0291551 	3.80009 	
3.77093 	3.97141 	-0.200482 	-3.33946 	1.12566e-07 	23.3917 	6.67857 	
-4.41314e-09 	14488.2 	247.185 	283.536 	0.35 	13.208 	-0.252836 	6.77333e-05 	
0.00180191 	0.00120127 	
0.0014732 	1.27647e-08 	0.92 	0.04 	0.04 	0.029155 	3.80008 	
3.77093 	3.97141 	-0.200488 	-3.33982 	9.5259e-08 	20.0521 	10.0182 	