TITLE = "Solution on Domain BulkDomain1D_0"
VARIABLES = "x [m]"  
"Vel_axial(0)" 	"MF_sp(ECDMC)" 	"MF_sp(Li+)" 	"MF_sp(PF6-)" 	"Volt(Electroly)" 	"Volt(AnodeVolt)" 	
"Potential Drop Electrode-Electrolyte [V]" 	"Surf_0 Equilibrium Potential Drop Electrode-Electrolyte [V]" 	"Overpotential_0 [V]" 	"Current Source [A/m^2]" 	"Li+ flux [kmol/m^2/s]" 	"Electrolyte Current [A/m^2]" 	"Electrode Current [A/m^2]" 	
"Capacity discharged [A-s]" 	"Depth of discharge [-]" 	"Capacity remaining [A-s]" 	"Initial capacity [A-s]" 	"Porosity []" 	"Surface Area [m2/m2] (area per area)" 	"Specific current (per particle area) [A/m^2]" 	"Control volume thickness [m]" 	
"Moles Li_C6-bulk [mol/m^2] (per electrode area)" 	"Moles V_C6-bulk [mol/m^2] (per electrode area)" 	"qHeat_accum [J/m3]" 	"qHeat_step [W/m3]" 	"Joule_Lyte [W/m3]" 	"Joule_Solid [W/m3]" 	"electrodHeat [W/m3]" 	"OverpotHeat [W/m3]" 	"deltaSHeat [W/m3]" 	

ZONE T = "t = 0 [s]" I = 10 SOLUTIONTIME = 0.0000000000000E+00
0 	0 	0.92 	0.04 	0.04 	-0.07 	0 	
0 	0 	0 	0 	0 	0 	15.4651 	
0 	0 	0 	0 	0.35 	8.53017 	3.62598 	4.37444e-05 	
0.00379119 	0.000947796 	0 	0.0 	 0.0 	 0.0 	 0.0 	 0.0 	 0.0 	 
8.74889e-05 	0 	0.92 	0.04 	0.04 	-0.07 	0 	
0 	0 	0 	0 	0 	0 	-0 	
0 	0 	0 	0 	0.35 	17.0603 	3.62598 	8.74889e-05 	
0.00758237 	0.00189559 	0 	0.0 	 0.0 	 0.0 	 0.0 	 0.0 	 0.0 	 
0.000174978 	0 	0.92 	0.04 	0.04 	-0.07 	0 	
0 	0 	0 	0 	0 	0 	-0 	
0 	0 	0 	0 	0.35 	17.0603 	3.62598 	8.74889e-05 	
0.00758237 	0.00189559 	0 	0.0 	 0.0 	 0.0 	 0.0 	 0.0 	 0.0 	 
0.000262467 	0 	0.92 	0.04 	0.04 	-0.07 	0 	
0 	0 	0 	0 	0 	0 	-0 	
0 	0 	0 	0 	0.35 	17.0603 	3.62598 	8.74889e-05 	
0.00758237 	0.00189559 	0 	0.0 	 0.0 	 0.0 	 0.0 	 0.0 	 0.0 	 
0.000349956 	0 	0.92 	0.04 	0.04 	-0.07 	0 	
0 	0 	0 	0 	0 	0 	-0 	
0 	0 	0 	0 	0.35 	17.0603 	3.62598 	8.74889e-05 	
0.00758237 	0.00189559 	0 	0.0 	 0.0 	 0.0 	 0.0 	 0.0 	 0.0 	 
0.000437444 	0 	0.92 	0.04 	0.04 	-0.07 	0 	
0 	0 	0 	0 	0 	0 	-0 	
0 	0 	0 	0 	0.35 	17.0603 	3.62598 	8.74889e-05 	
0.00758237 	0.00189559 	0 	0.0 	 0.0 	 0.0 	 0.0 	 0.0 	 0.0 	 
0.000524933 	0 	0.92 	0.04 	0.04 	-0.07 	0 	
0 	0 	0 	0 	0 	0 	-0 	
0 	0 	0 	0 	0.35 	17.0603 	3.62598 	8.74889e-05 	
0.00758237 	0.00189559 	0 	0.0 	 0.0 	 0.0 	 0.0 	 0.0 	 0.0 	 
0.000612422 	0 	0.92 	0.04 	0.04 	-0.07 	0 	
0 	0 	0 	0 	0 	0 	-0 	
0 	0 	0 	0 	0.35 	17.0603 	3.62598 	8.74889e-05 	
0.00758237 	0.00189559 	0 	0.0 	 0.0 	 0.0 	 0.0 	 0.0 	 0.0 	 
0.000699911 	0 	0.92 	0.04 	0.04 	-0.07 	0 	
0 	0 	0 	0 	0 	0 	-0 	
0 	0 	0 	0 	0.35 	17.0603 	3.62598 	8.74889e-05 	
0.00758237 	0.00189559 	0 	0.0 	 0.0 	 0.0 	 0.0 	 0.0 	 0.0 	 
0.0007874 	0 	0.92 	0.04 	0.04 	-0.07 	0 	
0 	0 	0 	0 	0 	15.4651 	0 	
0 	0 	0 	0 	0.35 	8.53017 	3.62598 	4.37444e-05 	
0.00379119 	0.000947796 	0 	0.0 	 0.0 	 0.0 	 0.0 	 0.0 	 0.0 	 
ZONE T = "t = 1e-08 [s]" I = 10 SOLUTIONTIME = 1.0000000000000E-08
0 	1.63842e-09 	0.92 	0.04 	0.04 	0.0113619 	0 	
0.07 	-0.0409067 	0.110907 	30.9302 	-0 	1.17986 	41.2972 	
0 	91448.4 	916.789 	1145.99 	0.35 	8.53017 	0.276632 	4.37444e-05 	
0.00379119 	0.000947796 	0 	0 	0 	0 	0 	0 	0 	
8.74889e-05 	4.9149e-09 	0.92 	0.04 	0.04 	0.0113619 	-5.39973e-09 	
0.07 	-0.0409067 	0.110907 	61.8605 	-0 	4.71944 	37.7576 	
0 	182897 	1833.58 	2291.97 	0.35 	17.0603 	0.276632 	8.74889e-05 	
0.00758237 	0.00189559 	0 	0 	0 	0 	0 	0 	0 	
0.000174978 	8.19176e-09 	0.92 	0.04 	0.04 	0.0113618 	-1.01642e-08 	
0.07 	-0.0409067 	0.110907 	61.8605 	-0 	9.43889 	33.0382 	
0 	182897 	1833.58 	2291.97 	0.35 	17.0603 	0.276634 	8.74889e-05 	
0.00758237 	0.00189559 	0 	0 	0 	0 	0 	0 	0 	
0.000262467 	1.14687e-08 	0.92 	0.04 	0.04 	0.0113617 	-1.42935e-08 	
0.07 	-0.0409067 	0.110907 	61.8605 	-0 	14.1584 	28.3187 	
0 	182897 	1833.58 	2291.97 	0.35 	17.0603 	0.276636 	8.74889e-05 	
0.00758237 	0.00189559 	0 	0 	0 	0 	0 	0 	0 	
0.000349956 	1.47452e-08 	0.92 	0.04 	0.04 	0.0113616 	-1.77875e-08 	
0.07 	-0.0409067 	0.110907 	61.8605 	-0 	18.8779 	23.5991 	
0 	182897 	1833.58 	2291.97 	0.35 	17.0603 	0.27664 	8.74889e-05 	
0.00758237 	0.00189559 	0 	0 	0 	0 	0 	0 	0 	
0.000437444 	1.80222e-08 	0.92 	0.04 	0.04 	0.0113614 	-2.06463e-08 	
0.07 	-0.0409067 	0.110907 	61.8605 	-0 	23.5975 	18.8795 	
0 	182897 	1833.58 	2291.97 	0.35 	17.0603 	0.276645 	8.74889e-05 	
0.00758237 	0.00189559 	0 	0 	0 	0 	0 	0 	0 	
0.000524933 	2.12996e-08 	0.92 	0.04 	0.04 	0.0113611 	-2.28698e-08 	
0.07 	-0.0409067 	0.110907 	61.8605 	-0 	28.3172 	14.1598 	
0 	182897 	1833.58 	2291.97 	0.35 	17.0603 	0.276651 	8.74889e-05 	
0.00758237 	0.00189559 	0 	0 	0 	0 	0 	0 	0 	
0.000612422 	2.45771e-08 	0.92 	0.04 	0.04 	0.0113608 	-2.44581e-08 	
0.07 	-0.0409067 	0.110907 	61.8605 	-0 	33.037 	9.44002 	
0 	182897 	1833.58 	2291.97 	0.35 	17.0603 	0.276657 	8.74889e-05 	
0.00758237 	0.00189559 	0 	0 	0 	0 	0 	0 	0 	
0.000699911 	2.78547e-08 	0.92 	0.04 	0.04 	0.0113605 	-2.5411e-08 	
0.07 	-0.0409067 	0.110907 	61.8605 	-0 	37.757 	4.72008 	
0 	182897 	1833.58 	2291.97 	0.35 	17.0603 	0.276665 	8.74889e-05 	
0.00758237 	0.00189559 	0 	0 	0 	0 	0 	0 	0 	
0.0007874 	2.94941e-08 	0.92 	0.04 	0.04 	0.0113601 	-2.57287e-08 	
0.07 	-0.0409067 	0.110907 	30.9302 	-0 	41.297 	1.18004 	
0 	91448.4 	916.789 	1145.99 	0.35 	8.53017 	0.276675 	4.37444e-05 	
0.00379119 	0.000947796 	0 	0 	0 	0 	0 	0 	0 	
ZONE T = "t = 2e-08 [s]" I = 10 SOLUTIONTIME = 2.0000000000000E-08
0 	1.15931e-09 	0.92 	0.04 	0.04 	0.0291632 	0 	
-0.0113619 	-0.0409067 	0.0295448 	2.35972 	1.22284e-08 	0.83475 	29.2174 	
5.91416e-11 	91448.4 	916.789 	1145.99 	0.35 	8.53017 	0.195735 	4.37444e-05 	
0.00379119 	0.000947796 	0 	0 	0 	0 	0 	0 	0 	
8.74889e-05 	3.47794e-09 	0.92 	0.04 	0.04 	0.0291632 	-3.82025e-09 	
-0.0113619 	-0.0409067 	0.0295448 	4.71944 	3.66851e-08 	3.339 	26.7131 	
1.18283e-10 	182897 	1833.58 	2291.97 	0.35 	17.0603 	0.195735 	8.74889e-05 	
0.00758237 	0.00189559 	0 	0 	0 	0 	0 	0 	0 	
0.000174978 	5.79657e-09 	0.92 	0.04 	0.04 	0.0291631 	-7.19107e-09 	
-0.0113619 	-0.0409067 	0.0295449 	4.71947 	6.1142e-08 	6.67801 	23.3741 	
1.18284e-10 	182897 	1833.58 	2291.97 	0.35 	17.0603 	0.195736 	8.74889e-05 	
0.00758237 	0.00189559 	0 	0 	0 	0 	0 	0 	0 	
0.000262467 	8.11522e-09 	0.92 	0.04 	0.04 	0.0291631 	-1.01125e-08 	
-0.0113618 	-0.0409067 	0.029545 	4.71951 	8.55992e-08 	10.017 	20.0351 	
1.18285e-10 	182897 	1833.58 	2291.97 	0.35 	17.0603 	0.195737 	8.74889e-05 	
0.00758237 	0.00189559 	0 	0 	0 	0 	0 	0 	0 	
0.000349956 	1.04339e-08 	0.92 	0.04 	0.04 	0.029163 	-1.25844e-08 	
-0.0113616 	-0.0409067 	0.0295451 	4.71957 	1.10057e-07 	13.3561 	16.696 	
1.18287e-10 	182897 	1833.58 	2291.97 	0.35 	17.0603 	0.195739 	8.74889e-05 	
0.00758237 	0.00189559 	0 	0 	0 	0 	0 	0 	0 	
0.000437444 	1.27526e-08 	0.92 	0.04 	0.04 	0.0291628 	-1.4607e-08 	
-0.0113614 	-0.0409067 	0.0295453 	4.71965 	1.34515e-07 	16.6952 	13.3569 	
1.18289e-10 	182897 	1833.58 	2291.97 	0.35 	17.0603 	0.195741 	8.74889e-05 	
0.00758237 	0.00189559 	0 	0 	0 	0 	0 	0 	0 	
0.000524933 	1.50713e-08 	0.92 	0.04 	0.04 	0.0291626 	-1.61801e-08 	
-0.0113612 	-0.0409067 	0.0295456 	4.71975 	1.58973e-07 	20.0343 	10.0178 	
1.18291e-10 	182897 	1833.58 	2291.97 	0.35 	17.0603 	0.195744 	8.74889e-05 	
0.00758237 	0.00189559 	0 	0 	0 	0 	0 	0 	0 	
0.000612422 	1.73901e-08 	0.92 	0.04 	0.04 	0.0291624 	-1.73037e-08 	
-0.0113609 	-0.0409067 	0.0295458 	4.71987 	1.83432e-07 	23.3735 	6.67858 	
1.18294e-10 	182897 	1833.58 	2291.97 	0.35 	17.0603 	0.195748 	8.74889e-05 	
0.00758237 	0.00189559 	0 	0 	0 	0 	0 	0 	0 	
0.000699911 	1.971e-08 	0.92 	0.04 	0.04 	0.0291622 	-1.79779e-08 	
-0.0113605 	-0.0409067 	0.0295462 	4.72 	2.07892e-07 	26.7128 	3.33933 	
1.18297e-10 	182897 	1833.58 	2291.97 	0.35 	17.0603 	0.195752 	8.74889e-05 	
0.00758237 	0.00189559 	0 	0 	0 	0 	0 	0 	0 	
0.0007874 	2.08694e-08 	0.92 	0.04 	0.04 	0.0291619 	-1.82027e-08 	
-0.0113602 	-0.0409067 	0.0295466 	2.36008 	2.07892e-07 	29.2173 	0.834841 	
5.91507e-11 	91448.4 	916.789 	1145.99 	0.35 	8.53017 	0.195756 	4.37444e-05 	
0.00379119 	0.000947796 	0 	0 	0 	0 	0 	0 	0 	
ZONE T = "t = 3e-08 [s]" I = 10 SOLUTIONTIME = 3.0000000000000E-08
0 	1.15931e-09 	0.92 	0.04 	0.04 	0.0291633 	0 	
-0.0291632 	-0.0409067 	0.0117435 	1.66965 	8.65158e-09 	0.834748 	29.2173 	
1.00988e-10 	91448.4 	916.789 	1145.99 	0.35 	8.53017 	0.195733 	4.37444e-05 	
0.00379119 	0.000947796 	0 	0 	0 	0 	0 	0 	0 	
8.74889e-05 	3.47793e-09 	0.92 	0.04 	0.04 	0.0291633 	-3.82024e-09 	
-0.0291632 	-0.0409067 	0.0117435 	3.33931 	2.59547e-08 	3.33899 	26.713 	
2.01976e-10 	182897 	1833.58 	2291.97 	0.35 	17.0603 	0.195733 	8.74889e-05 	
0.00758237 	0.00189559 	0 	0 	0 	0 	0 	0 	0 	
0.000174978 	5.79655e-09 	0.92 	0.04 	0.04 	0.0291632 	-7.19105e-09 	
-0.0291631 	-0.0409067 	0.0117436 	3.33932 	4.3258e-08 	6.67799 	23.374 	
2.01977e-10 	182897 	1833.58 	2291.97 	0.35 	17.0603 	0.195734 	8.74889e-05 	
0.00758237 	0.00189559 	0 	0 	0 	0 	0 	0 	0 	
0.000262467 	8.11519e-09 	0.92 	0.04 	0.04 	0.0291632 	-1.01124e-08 	
-0.0291631 	-0.0409067 	0.0117436 	3.33934 	6.05613e-08 	10.017 	20.035 	
2.01979e-10 	182897 	1833.58 	2291.97 	0.35 	17.0603 	0.195735 	8.74889e-05 	
0.00758237 	0.00189559 	0 	0 	0 	0 	0 	0 	0 	
0.000349956 	1.04339e-08 	0.92 	0.04 	0.04 	0.0291631 	-1.25844e-08 	
-0.029163 	-0.0409067 	0.0117437 	3.33937 	7.78649e-08 	13.3561 	16.6959 	
2.01981e-10 	182897 	1833.58 	2291.97 	0.35 	17.0603 	0.195737 	8.74889e-05 	
0.00758237 	0.00189559 	0 	0 	0 	0 	0 	0 	0 	
0.000437444 	1.27515e-08 	0.92 	0.04 	0.04 	0.0291629 	-1.46069e-08 	
-0.0291628 	-0.0409067 	0.0117439 	3.33941 	9.51686e-08 	16.6951 	13.3569 	
2.01984e-10 	182897 	1833.58 	2291.97 	0.35 	17.0603 	0.19574 	8.74889e-05 	
0.00758237 	0.00189559 	0 	0 	0 	0 	0 	0 	0 	
0.000524933 	1.50698e-08 	0.92 	0.04 	0.04 	0.0291627 	-1.618e-08 	
-0.0291627 	-0.0409067 	0.0117441 	3.33946 	1.12473e-07 	20.0343 	10.0177 	
2.01988e-10 	182897 	1833.58 	2291.97 	0.35 	17.0603 	0.195743 	8.74889e-05 	
0.00758237 	0.00189559 	0 	0 	0 	0 	0 	0 	0 	
0.000612422 	1.73879e-08 	0.92 	0.04 	0.04 	0.0291625 	-1.73037e-08 	
-0.0291624 	-0.0409067 	0.0117443 	3.33952 	1.29777e-07 	23.3734 	6.67856 	
2.01993e-10 	182897 	1833.58 	2291.97 	0.35 	17.0603 	0.195746 	8.74889e-05 	
0.00758237 	0.00189559 	0 	0 	0 	0 	0 	0 	0 	
0.000699911 	1.9706e-08 	0.92 	0.04 	0.04 	0.0291623 	-1.79779e-08 	
-0.0291622 	-0.0409067 	0.0117445 	3.33959 	1.47082e-07 	26.7127 	3.33932 	
2.01998e-10 	182897 	1833.58 	2291.97 	0.35 	17.0603 	0.19575 	8.74889e-05 	
0.00758237 	0.00189559 	0 	0 	0 	0 	0 	0 	0 	
0.0007874 	2.08648e-08 	0.92 	0.04 	0.04 	0.029162 	-1.82026e-08 	
-0.0291619 	-0.0409067 	0.0117448 	1.66983 	1.47082e-07 	29.2172 	0.834839 	
1.01002e-10 	91448.4 	916.789 	1145.99 	0.35 	8.53017 	0.195754 	4.37444e-05 	
0.00379119 	0.000947796 	0 	0 	0 	0 	0 	0 	0 	
ZONE T = "t = 4e-08 [s]" I = 10 SOLUTIONTIME = 4.0000000000000E-08
0 	1.15959e-09 	0.92 	0.04 	0.04 	0.0291633 	0 	
-0.0291633 	-0.0409067 	0.0117434 	1.66964 	8.65155e-09 	0.834822 	29.2199 	
1.42834e-10 	91448.4 	916.789 	1145.99 	0.35 	8.53017 	0.195734 	4.37444e-05 	
0.00379119 	0.000947796 	0 	0 	0 	0 	0 	0 	0 	
8.74889e-05 	3.47878e-09 	0.92 	0.04 	0.04 	0.0291632 	-3.82058e-09 	
-0.0291633 	-0.0409067 	0.0117434 	3.33928 	2.59547e-08 	3.33929 	26.7154 	
2.85669e-10 	182897 	1833.58 	2291.97 	0.35 	17.0603 	0.195734 	8.74889e-05 	
0.00758237 	0.00189559 	0 	0 	0 	0 	0 	0 	0 	
0.000174978 	5.79798e-09 	0.92 	0.04 	0.04 	0.0291632 	-7.19169e-09 	
-0.0291633 	-0.0409067 	0.0117435 	3.33929 	4.32579e-08 	6.67859 	23.3761 	
2.8567e-10 	182897 	1833.58 	2291.97 	0.35 	17.0603 	0.195735 	8.74889e-05 	
0.00758237 	0.00189559 	0 	0 	0 	0 	0 	0 	0 	
0.000262467 	8.11719e-09 	0.92 	0.04 	0.04 	0.0291631 	-1.01133e-08 	
-0.0291632 	-0.0409067 	0.0117435 	3.33931 	6.05612e-08 	10.0179 	20.0368 	
2.85672e-10 	182897 	1833.58 	2291.97 	0.35 	17.0603 	0.195736 	8.74889e-05 	
0.00758237 	0.00189559 	0 	0 	0 	0 	0 	0 	0 	
0.000349956 	1.04361e-08 	0.92 	0.04 	0.04 	0.029163 	-1.25855e-08 	
-0.0291631 	-0.0409067 	0.0117436 	3.33934 	7.78646e-08 	13.3572 	16.6974 	
2.85675e-10 	182897 	1833.58 	2291.97 	0.35 	17.0603 	0.195738 	8.74889e-05 	
0.00758237 	0.00189559 	0 	0 	0 	0 	0 	0 	0 	
0.000437444 	1.2755e-08 	0.92 	0.04 	0.04 	0.0291629 	-1.46082e-08 	
-0.0291629 	-0.0409067 	0.0117438 	3.33938 	9.51683e-08 	16.6966 	13.3581 	
2.85679e-10 	182897 	1833.58 	2291.97 	0.35 	17.0603 	0.19574 	8.74889e-05 	
0.00758237 	0.00189559 	0 	0 	0 	0 	0 	0 	0 	
0.000524933 	1.50739e-08 	0.92 	0.04 	0.04 	0.0291627 	-1.61815e-08 	
-0.0291628 	-0.0409067 	0.011744 	3.33943 	1.12472e-07 	20.036 	10.0186 	
2.85684e-10 	182897 	1833.58 	2291.97 	0.35 	17.0603 	0.195743 	8.74889e-05 	
0.00758237 	0.00189559 	0 	0 	0 	0 	0 	0 	0 	
0.000612422 	1.73929e-08 	0.92 	0.04 	0.04 	0.0291625 	-1.73052e-08 	
-0.0291626 	-0.0409067 	0.0117442 	3.33949 	1.29776e-07 	23.3755 	6.67915 	
2.8569e-10 	182897 	1833.58 	2291.97 	0.35 	17.0603 	0.195747 	8.74889e-05 	
0.00758237 	0.00189559 	0 	0 	0 	0 	0 	0 	0 	
0.000699911 	1.97122e-08 	0.92 	0.04 	0.04 	0.0291623 	-1.79795e-08 	
-0.0291623 	-0.0409067 	0.0117444 	3.33956 	1.47081e-07 	26.7151 	3.33961 	
2.85697e-10 	182897 	1833.58 	2291.97 	0.35 	17.0603 	0.195751 	8.74889e-05 	
0.00758237 	0.00189559 	0 	0 	0 	0 	0 	0 	0 	
0.0007874 	2.08711e-08 	0.92 	0.04 	0.04 	0.029162 	-1.82042e-08 	
-0.0291621 	-0.0409067 	0.0117447 	1.66982 	1.47081e-07 	29.2198 	0.834913 	
1.42852e-10 	91448.4 	916.789 	1145.99 	0.35 	8.53017 	0.195755 	4.37444e-05 	
0.00379119 	0.000947796 	0 	0 	0 	0 	0 	0 	0 	
ZONE T = "t = 5.5e-08 [s]" I = 10 SOLUTIONTIME = 5.5000000000000E-08
0 	1.15917e-09 	0.92 	0.04 	0.04 	0.0291633 	0 	
-0.0291633 	-0.0409067 	0.0117435 	1.66964 	8.65232e-09 	0.834822 	29.2199 	
1.8468e-10 	91448.4 	916.789 	1145.99 	0.35 	8.53017 	0.195734 	4.37444e-05 	
0.00379119 	0.000947796 	0 	0 	0 	0 	0 	0 	0 	
8.74889e-05 	3.47727e-09 	0.92 	0.04 	0.04 	0.0291632 	-3.82058e-09 	
-0.0291632 	-0.0409067 	0.0117435 	3.33929 	2.5957e-08 	3.33929 	26.7154 	
3.69361e-10 	182897 	1833.58 	2291.97 	0.35 	17.0603 	0.195734 	8.74889e-05 	
0.00758237 	0.00189559 	0 	0 	0 	0 	0 	0 	0 	
0.000174978 	5.79562e-09 	0.92 	0.04 	0.04 	0.0291632 	-7.19169e-09 	
-0.0291632 	-0.0409067 	0.0117435 	3.3393 	4.32617e-08 	6.67859 	23.3761 	
3.69363e-10 	182897 	1833.58 	2291.97 	0.35 	17.0603 	0.195735 	8.74889e-05 	
0.00758237 	0.00189559 	0 	0 	0 	0 	0 	0 	0 	
0.000262467 	8.11398e-09 	0.92 	0.04 	0.04 	0.0291631 	-1.01133e-08 	
-0.0291631 	-0.0409067 	0.0117436 	3.33933 	6.05665e-08 	10.0179 	20.0368 	
3.69366e-10 	182897 	1833.58 	2291.97 	0.35 	17.0603 	0.195736 	8.74889e-05 	
0.00758237 	0.00189559 	0 	0 	0 	0 	0 	0 	0 	
0.000349956 	1.04324e-08 	0.92 	0.04 	0.04 	0.029163 	-1.25855e-08 	
-0.029163 	-0.0409067 	0.0117437 	3.33936 	7.78715e-08 	13.3572 	16.6974 	
3.6937e-10 	182897 	1833.58 	2291.97 	0.35 	17.0603 	0.195738 	8.74889e-05 	
0.00758237 	0.00189559 	0 	0 	0 	0 	0 	0 	0 	
0.000437444 	1.2751e-08 	0.92 	0.04 	0.04 	0.0291629 	-1.46082e-08 	
-0.0291629 	-0.0409067 	0.0117438 	3.3394 	9.51768e-08 	16.6966 	13.3581 	
3.69375e-10 	182897 	1833.58 	2291.97 	0.35 	17.0603 	0.19574 	8.74889e-05 	
0.00758237 	0.00189559 	0 	0 	0 	0 	0 	0 	0 	
0.000524933 	1.50697e-08 	0.92 	0.04 	0.04 	0.0291627 	-1.61815e-08 	
-0.0291627 	-0.0409067 	0.011744 	3.33945 	1.12482e-07 	20.036 	10.0186 	
3.69381e-10 	182897 	1833.58 	2291.97 	0.35 	17.0603 	0.195743 	8.74889e-05 	
0.00758237 	0.00189559 	0 	0 	0 	0 	0 	0 	0 	
0.000612422 	1.73882e-08 	0.92 	0.04 	0.04 	0.0291625 	-1.73052e-08 	
-0.0291625 	-0.0409067 	0.0117442 	3.33951 	1.29788e-07 	23.3755 	6.67915 	
3.69388e-10 	182897 	1833.58 	2291.97 	0.35 	17.0603 	0.195747 	8.74889e-05 	
0.00758237 	0.00189559 	0 	0 	0 	0 	0 	0 	0 	
0.000699911 	1.97065e-08 	0.92 	0.04 	0.04 	0.0291623 	-1.79795e-08 	
-0.0291623 	-0.0409067 	0.0117444 	3.33957 	1.47094e-07 	26.7151 	3.33961 	
3.69397e-10 	182897 	1833.58 	2291.97 	0.35 	17.0603 	0.195751 	8.74889e-05 	
0.00758237 	0.00189559 	0 	0 	0 	0 	0 	0 	0 	
0.0007874 	2.08665e-08 	0.92 	0.04 	0.04 	0.029162 	-1.82042e-08 	
-0.029162 	-0.0409067 	0.0117447 	1.66983 	1.47094e-07 	29.2198 	0.834913 	
1.84703e-10 	91448.4 	916.789 	1145.99 	0.35 	8.53017 	0.195755 	4.37444e-05 	
0.00379119 	0.000947796 	0 	0 	0 	0 	0 	0 	0 	
ZONE T = "t = 7.75e-08 [s]" I = 10 SOLUTIONTIME = 7.7500000000000E-08
0 	1.15949e-09 	0.92 	0.04 	0.04 	0.0291633 	0 	
-0.0291633 	-0.0409067 	0.0117435 	1.66964 	8.65232e-09 	0.834822 	29.2199 	
2.4745e-10 	91448.4 	916.789 	1145.99 	0.35 	8.53017 	0.195734 	4.37444e-05 	
0.00379119 	0.000947796 	0 	0 	0 	0 	0 	0 	0 	
8.74889e-05 	3.47864e-09 	0.92 	0.04 	0.04 	0.0291632 	-3.82058e-09 	
-0.0291632 	-0.0409067 	0.0117435 	3.33929 	2.5957e-08 	3.33929 	26.7154 	
4.949e-10 	182897 	1833.58 	2291.97 	0.35 	17.0603 	0.195734 	8.74889e-05 	
0.00758237 	0.00189559 	0 	0 	0 	0 	0 	0 	0 	
0.000174978 	5.79763e-09 	0.92 	0.04 	0.04 	0.0291632 	-7.19169e-09 	
-0.0291632 	-0.0409067 	0.0117435 	3.3393 	4.32617e-08 	6.67859 	23.3761 	
4.94902e-10 	182897 	1833.58 	2291.97 	0.35 	17.0603 	0.195735 	8.74889e-05 	
0.00758237 	0.00189559 	0 	0 	0 	0 	0 	0 	0 	
0.000262467 	8.1168e-09 	0.92 	0.04 	0.04 	0.0291631 	-1.01133e-08 	
-0.0291631 	-0.0409067 	0.0117436 	3.33933 	6.05665e-08 	10.0179 	20.0368 	
4.94906e-10 	182897 	1833.58 	2291.97 	0.35 	17.0603 	0.195736 	8.74889e-05 	
0.00758237 	0.00189559 	0 	0 	0 	0 	0 	0 	0 	
0.000349956 	1.0436e-08 	0.92 	0.04 	0.04 	0.029163 	-1.25855e-08 	
-0.029163 	-0.0409067 	0.0117437 	3.33936 	7.78715e-08 	13.3572 	16.6974 	
4.94911e-10 	182897 	1833.58 	2291.97 	0.35 	17.0603 	0.195738 	8.74889e-05 	
0.00758237 	0.00189559 	0 	0 	0 	0 	0 	0 	0 	
0.000437444 	1.27549e-08 	0.92 	0.04 	0.04 	0.0291629 	-1.46082e-08 	
-0.0291629 	-0.0409067 	0.0117438 	3.3394 	9.51768e-08 	16.6966 	13.3581 	
4.94918e-10 	182897 	1833.58 	2291.97 	0.35 	17.0603 	0.19574 	8.74889e-05 	
0.00758237 	0.00189559 	0 	0 	0 	0 	0 	0 	0 	
0.000524933 	1.50738e-08 	0.92 	0.04 	0.04 	0.0291627 	-1.61815e-08 	
-0.0291627 	-0.0409067 	0.011744 	3.33945 	1.12482e-07 	20.036 	10.0186 	
4.94926e-10 	182897 	1833.58 	2291.97 	0.35 	17.0603 	0.195743 	8.74889e-05 	
0.00758237 	0.00189559 	0 	0 	0 	0 	0 	0 	0 	
0.000612422 	1.73928e-08 	0.92 	0.04 	0.04 	0.0291625 	-1.73052e-08 	
-0.0291625 	-0.0409067 	0.0117442 	3.33951 	1.29788e-07 	23.3755 	6.67915 	
4.94935e-10 	182897 	1833.58 	2291.97 	0.35 	17.0603 	0.195747 	8.74889e-05 	
0.00758237 	0.00189559 	0 	0 	0 	0 	0 	0 	0 	
0.000699911 	1.97118e-08 	0.92 	0.04 	0.04 	0.0291623 	-1.79795e-08 	
-0.0291623 	-0.0409067 	0.0117444 	3.33957 	1.47095e-07 	26.7151 	3.33961 	
4.94946e-10 	182897 	1833.58 	2291.97 	0.35 	17.0603 	0.195751 	8.74889e-05 	
0.00758237 	0.00189559 	0 	0 	0 	0 	0 	0 	0 	
0.0007874 	2.0871e-08 	0.92 	0.04 	0.04 	0.029162 	-1.82042e-08 	
-0.029162 	-0.0409067 	0.0117447 	1.66983 	1.47095e-07 	29.2198 	0.834913 	
2.47479e-10 	91448.4 	916.789 	1145.99 	0.35 	8.53017 	0.195755 	4.37444e-05 	
0.00379119 	0.000947796 	0 	0 	0 	0 	0 	0 	0 	
ZONE T = "t = 1.1125e-07 [s]" I = 10 SOLUTIONTIME = 1.1125000000000E-07
0 	1.15941e-09 	0.92 	0.04 	0.04 	0.0291633 	0 	
-0.0291633 	-0.0409067 	0.0117435 	1.66964 	8.65232e-09 	0.834822 	29.2199 	
3.41604e-10 	91448.4 	916.789 	1145.99 	0.35 	8.53017 	0.195734 	4.37444e-05 	
0.00379119 	0.000947796 	0 	0 	0 	0 	0 	0 	0 	
8.74889e-05 	3.47824e-09 	0.92 	0.04 	0.04 	0.0291632 	-3.82058e-09 	
-0.0291632 	-0.0409067 	0.0117435 	3.33929 	2.5957e-08 	3.33929 	26.7154 	
6.83209e-10 	182897 	1833.58 	2291.97 	0.35 	17.0603 	0.195734 	8.74889e-05 	
0.00758237 	0.00189559 	0 	0 	0 	0 	0 	0 	0 	
0.000174978 	5.79707e-09 	0.92 	0.04 	0.04 	0.0291632 	-7.19169e-09 	
-0.0291632 	-0.0409067 	0.0117435 	3.3393 	4.32617e-08 	6.67859 	23.3761 	
6.83212e-10 	182897 	1833.58 	2291.97 	0.35 	17.0603 	0.195735 	8.74889e-05 	
0.00758237 	0.00189559 	0 	0 	0 	0 	0 	0 	0 	
0.000262467 	8.11581e-09 	0.92 	0.04 	0.04 	0.0291631 	-1.01133e-08 	
-0.0291631 	-0.0409067 	0.0117436 	3.33933 	6.05665e-08 	10.0179 	20.0368 	
6.83216e-10 	182897 	1833.58 	2291.97 	0.35 	17.0603 	0.195736 	8.74889e-05 	
0.00758237 	0.00189559 	0 	0 	0 	0 	0 	0 	0 	
0.000349956 	1.04347e-08 	0.92 	0.04 	0.04 	0.029163 	-1.25855e-08 	
-0.029163 	-0.0409067 	0.0117437 	3.33936 	7.78715e-08 	13.3572 	16.6974 	
6.83223e-10 	182897 	1833.58 	2291.97 	0.35 	17.0603 	0.195738 	8.74889e-05 	
0.00758237 	0.00189559 	0 	0 	0 	0 	0 	0 	0 	
0.000437444 	1.27537e-08 	0.92 	0.04 	0.04 	0.0291629 	-1.46082e-08 	
-0.0291629 	-0.0409067 	0.0117438 	3.3394 	9.51768e-08 	16.6966 	13.3581 	
6.83232e-10 	182897 	1833.58 	2291.97 	0.35 	17.0603 	0.19574 	8.74889e-05 	
0.00758237 	0.00189559 	0 	0 	0 	0 	0 	0 	0 	
0.000524933 	1.50729e-08 	0.92 	0.04 	0.04 	0.0291627 	-1.61815e-08 	
-0.0291627 	-0.0409067 	0.011744 	3.33945 	1.12482e-07 	20.036 	10.0186 	
6.83243e-10 	182897 	1833.58 	2291.97 	0.35 	17.0603 	0.195743 	8.74889e-05 	
0.00758237 	0.00189559 	0 	0 	0 	0 	0 	0 	0 	
0.000612422 	1.73921e-08 	0.92 	0.04 	0.04 	0.0291625 	-1.73052e-08 	
-0.0291625 	-0.0409067 	0.0117442 	3.33951 	1.29788e-07 	23.3755 	6.67915 	
6.83256e-10 	182897 	1833.58 	2291.97 	0.35 	17.0603 	0.195747 	8.74889e-05 	
0.00758237 	0.00189559 	0 	0 	0 	0 	0 	0 	0 	
0.000699911 	1.97114e-08 	0.92 	0.04 	0.04 	0.0291623 	-1.79795e-08 	
-0.0291623 	-0.0409067 	0.0117444 	3.33957 	1.47095e-07 	26.7151 	3.33961 	
6.83271e-10 	182897 	1833.58 	2291.97 	0.35 	17.0603 	0.195751 	8.74889e-05 	
0.00758237 	0.00189559 	0 	0 	0 	0 	0 	0 	0 	
0.0007874 	2.08711e-08 	0.92 	0.04 	0.04 	0.029162 	-1.82042e-08 	
-0.029162 	-0.0409067 	0.0117447 	1.66983 	1.47095e-07 	29.2198 	0.834913 	
3.41644e-10 	91448.4 	916.789 	1145.99 	0.35 	8.53017 	0.195755 	4.37444e-05 	
0.00379119 	0.000947796 	0 	0 	0 	0 	0 	0 	0 	
ZONE T = "t = 1.61875e-07 [s]" I = 10 SOLUTIONTIME = 1.6187500000000E-07
0 	1.15938e-09 	0.92 	0.04 	0.04 	0.0291633 	0 	
-0.0291633 	-0.0409067 	0.0117435 	1.66964 	8.65232e-09 	0.834822 	29.2199 	
4.82835e-10 	91448.4 	916.789 	1145.99 	0.35 	8.53017 	0.195734 	4.37444e-05 	
0.00379119 	0.000947796 	0 	0 	0 	0 	0 	0 	0 	
8.74889e-05 	3.47827e-09 	0.92 	0.04 	0.04 	0.0291632 	-3.82058e-09 	
-0.0291632 	-0.0409067 	0.0117435 	3.33929 	2.5957e-08 	3.33929 	26.7154 	
9.65672e-10 	182897 	1833.58 	2291.97 	0.35 	17.0603 	0.195734 	8.74889e-05 	
0.00758237 	0.00189559 	0 	0 	0 	0 	0 	0 	0 	
0.000174978 	5.79718e-09 	0.92 	0.04 	0.04 	0.0291632 	-7.19169e-09 	
-0.0291632 	-0.0409067 	0.0117435 	3.3393 	4.32617e-08 	6.67859 	23.3761 	
9.65675e-10 	182897 	1833.58 	2291.97 	0.35 	17.0603 	0.195735 	8.74889e-05 	
0.00758237 	0.00189559 	0 	0 	0 	0 	0 	0 	0 	
0.000262467 	8.11602e-09 	0.92 	0.04 	0.04 	0.0291631 	-1.01133e-08 	
-0.0291631 	-0.0409067 	0.0117436 	3.33933 	6.05665e-08 	10.0179 	20.0368 	
9.65682e-10 	182897 	1833.58 	2291.97 	0.35 	17.0603 	0.195736 	8.74889e-05 	
0.00758237 	0.00189559 	0 	0 	0 	0 	0 	0 	0 	
0.000349956 	1.04349e-08 	0.92 	0.04 	0.04 	0.029163 	-1.25855e-08 	
-0.029163 	-0.0409067 	0.0117437 	3.33936 	7.78715e-08 	13.3572 	16.6974 	
9.65692e-10 	182897 	1833.58 	2291.97 	0.35 	17.0603 	0.195738 	8.74889e-05 	
0.00758237 	0.00189559 	0 	0 	0 	0 	0 	0 	0 	
0.000437444 	1.27538e-08 	0.92 	0.04 	0.04 	0.0291629 	-1.46082e-08 	
-0.0291629 	-0.0409067 	0.0117438 	3.3394 	9.51768e-08 	16.6966 	13.3581 	
9.65704e-10 	182897 	1833.58 	2291.97 	0.35 	17.0603 	0.19574 	8.74889e-05 	
0.00758237 	0.00189559 	0 	0 	0 	0 	0 	0 	0 	
0.000524933 	1.50726e-08 	0.92 	0.04 	0.04 	0.0291627 	-1.61815e-08 	
-0.0291627 	-0.0409067 	0.011744 	3.33945 	1.12482e-07 	20.036 	10.0186 	
9.65719e-10 	182897 	1833.58 	2291.97 	0.35 	17.0603 	0.195743 	8.74889e-05 	
0.00758237 	0.00189559 	0 	0 	0 	0 	0 	0 	0 	
0.000612422 	1.73916e-08 	0.92 	0.04 	0.04 	0.0291625 	-1.73052e-08 	
-0.0291625 	-0.0409067 	0.0117442 	3.33951 	1.29788e-07 	23.3755 	6.67915 	
9.65737e-10 	182897 	1833.58 	2291.97 	0.35 	17.0603 	0.195747 	8.74889e-05 	
0.00758237 	0.00189559 	0 	0 	0 	0 	0 	0 	0 	
0.000699911 	1.97106e-08 	0.92 	0.04 	0.04 	0.0291623 	-1.79795e-08 	
-0.0291623 	-0.0409067 	0.0117444 	3.33957 	1.47095e-07 	26.7151 	3.33961 	
9.65757e-10 	182897 	1833.58 	2291.97 	0.35 	17.0603 	0.195751 	8.74889e-05 	
0.00758237 	0.00189559 	0 	0 	0 	0 	0 	0 	0 	
0.0007874 	2.087e-08 	0.92 	0.04 	0.04 	0.029162 	-1.82042e-08 	
-0.029162 	-0.0409067 	0.0117447 	1.66983 	1.47095e-07 	29.2198 	0.834913 	
4.8289e-10 	91448.4 	916.789 	1145.99 	0.35 	8.53017 	0.195755 	4.37444e-05 	
0.00379119 	0.000947796 	0 	0 	0 	0 	0 	0 	0 	
ZONE T = "t = 2.37813e-07 [s]" I = 10 SOLUTIONTIME = 2.3781250000000E-07
0 	1.15941e-09 	0.92 	0.04 	0.04 	0.0291633 	0 	
-0.0291633 	-0.0409067 	0.0117435 	1.66964 	8.65232e-09 	0.834822 	29.2199 	
6.94682e-10 	91448.4 	916.789 	1145.99 	0.35 	8.53017 	0.195734 	4.37444e-05 	
0.00379119 	0.000947796 	0 	0 	0 	0 	0 	0 	0 	
8.74889e-05 	3.47809e-09 	0.92 	0.04 	0.04 	0.0291632 	-3.82058e-09 	
-0.0291632 	-0.0409067 	0.0117435 	3.33929 	2.5957e-08 	3.33929 	26.7154 	
1.38937e-09 	182897 	1833.58 	2291.97 	0.35 	17.0603 	0.195734 	8.74889e-05 	
0.00758237 	0.00189559 	0 	0 	0 	0 	0 	0 	0 	
0.000174978 	5.79683e-09 	0.92 	0.04 	0.04 	0.0291632 	-7.19169e-09 	
-0.0291632 	-0.0409067 	0.0117435 	3.3393 	4.32617e-08 	6.67859 	23.3761 	
1.38937e-09 	182897 	1833.58 	2291.97 	0.35 	17.0603 	0.195735 	8.74889e-05 	
0.00758237 	0.00189559 	0 	0 	0 	0 	0 	0 	0 	
0.000262467 	8.11563e-09 	0.92 	0.04 	0.04 	0.0291631 	-1.01133e-08 	
-0.0291631 	-0.0409067 	0.0117436 	3.33933 	6.05665e-08 	10.0179 	20.0368 	
1.38938e-09 	182897 	1833.58 	2291.97 	0.35 	17.0603 	0.195736 	8.74889e-05 	
0.00758237 	0.00189559 	0 	0 	0 	0 	0 	0 	0 	
0.000349956 	1.04344e-08 	0.92 	0.04 	0.04 	0.029163 	-1.25855e-08 	
-0.029163 	-0.0409067 	0.0117437 	3.33936 	7.78715e-08 	13.3572 	16.6974 	
1.38939e-09 	182897 	1833.58 	2291.97 	0.35 	17.0603 	0.195738 	8.74889e-05 	
0.00758237 	0.00189559 	0 	0 	0 	0 	0 	0 	0 	
0.000437444 	1.27533e-08 	0.92 	0.04 	0.04 	0.0291629 	-1.46082e-08 	
-0.0291629 	-0.0409067 	0.0117438 	3.3394 	9.51768e-08 	16.6966 	13.3581 	
1.38941e-09 	182897 	1833.58 	2291.97 	0.35 	17.0603 	0.19574 	8.74889e-05 	
0.00758237 	0.00189559 	0 	0 	0 	0 	0 	0 	0 	
0.000524933 	1.50721e-08 	0.92 	0.04 	0.04 	0.0291627 	-1.61815e-08 	
-0.0291627 	-0.0409067 	0.011744 	3.33945 	1.12482e-07 	20.036 	10.0186 	
1.38943e-09 	182897 	1833.58 	2291.97 	0.35 	17.0603 	0.195743 	8.74889e-05 	
0.00758237 	0.00189559 	0 	0 	0 	0 	0 	0 	0 	
0.000612422 	1.7391e-08 	0.92 	0.04 	0.04 	0.0291625 	-1.73052e-08 	
-0.0291625 	-0.0409067 	0.0117442 	3.33951 	1.29788e-07 	23.3755 	6.67915 	
1.38946e-09 	182897 	1833.58 	2291.97 	0.35 	17.0603 	0.195747 	8.74889e-05 	
0.00758237 	0.00189559 	0 	0 	0 	0 	0 	0 	0 	
0.000699911 	1.97099e-08 	0.92 	0.04 	0.04 	0.0291623 	-1.79795e-08 	
-0.0291623 	-0.0409067 	0.0117444 	3.33957 	1.47095e-07 	26.7151 	3.33961 	
1.38949e-09 	182897 	1833.58 	2291.97 	0.35 	17.0603 	0.195751 	8.74889e-05 	
0.00758237 	0.00189559 	0 	0 	0 	0 	0 	0 	0 	
0.0007874 	2.08695e-08 	0.92 	0.04 	0.04 	0.029162 	-1.82042e-08 	
-0.029162 	-0.0409067 	0.0117447 	1.66983 	1.47095e-07 	29.2198 	0.834913 	
6.9476e-10 	91448.4 	916.789 	1145.99 	0.35 	8.53017 	0.195755 	4.37444e-05 	
0.00379119 	0.000947796 	0 	0 	0 	0 	0 	0 	0 	
ZONE T = "t = 3.51719e-07 [s]" I = 10 SOLUTIONTIME = 3.5171875000000E-07
0 	1.15941e-09 	0.92 	0.04 	0.04 	0.0291633 	0 	
-0.0291633 	-0.0409067 	0.0117435 	1.66964 	8.65232e-09 	0.834822 	29.2199 	
1.01245e-09 	91448.4 	916.789 	1145.99 	0.35 	8.53017 	0.195734 	4.37444e-05 	
0.00379119 	0.000947796 	0 	0 	0 	0 	0 	0 	0 	
8.74889e-05 	3.47833e-09 	0.92 	0.04 	0.04 	0.0291632 	-3.82058e-09 	
-0.0291632 	-0.0409067 	0.0117435 	3.33929 	2.5957e-08 	3.33929 	26.7154 	
2.02491e-09 	182897 	1833.58 	2291.97 	0.35 	17.0603 	0.195734 	8.74889e-05 	
0.00758237 	0.00189559 	0 	0 	0 	0 	0 	0 	0 	
0.000174978 	5.7972e-09 	0.92 	0.04 	0.04 	0.0291632 	-7.19169e-09 	
-0.0291632 	-0.0409067 	0.0117435 	3.3393 	4.32617e-08 	6.67859 	23.3761 	
2.02491e-09 	182897 	1833.58 	2291.97 	0.35 	17.0603 	0.195735 	8.74889e-05 	
0.00758237 	0.00189559 	0 	0 	0 	0 	0 	0 	0 	
0.000262467 	8.11608e-09 	0.92 	0.04 	0.04 	0.0291631 	-1.01133e-08 	
-0.0291631 	-0.0409067 	0.0117436 	3.33933 	6.05665e-08 	10.0179 	20.0368 	
2.02493e-09 	182897 	1833.58 	2291.97 	0.35 	17.0603 	0.195736 	8.74889e-05 	
0.00758237 	0.00189559 	0 	0 	0 	0 	0 	0 	0 	
0.000349956 	1.0435e-08 	0.92 	0.04 	0.04 	0.029163 	-1.25855e-08 	
-0.029163 	-0.0409067 	0.0117437 	3.33936 	7.78715e-08 	13.3572 	16.6974 	
2.02495e-09 	182897 	1833.58 	2291.97 	0.35 	17.0603 	0.195738 	8.74889e-05 	
0.00758237 	0.00189559 	0 	0 	0 	0 	0 	0 	0 	
0.000437444 	1.27539e-08 	0.92 	0.04 	0.04 	0.0291629 	-1.46082e-08 	
-0.0291629 	-0.0409067 	0.0117438 	3.3394 	9.51768e-08 	16.6966 	13.3581 	
2.02497e-09 	182897 	1833.58 	2291.97 	0.35 	17.0603 	0.19574 	8.74889e-05 	
0.00758237 	0.00189559 	0 	0 	0 	0 	0 	0 	0 	
0.000524933 	1.50729e-08 	0.92 	0.04 	0.04 	0.0291627 	-1.61815e-08 	
-0.0291627 	-0.0409067 	0.011744 	3.33945 	1.12482e-07 	20.036 	10.0186 	
2.025e-09 	182897 	1833.58 	2291.97 	0.35 	17.0603 	0.195743 	8.74889e-05 	
0.00758237 	0.00189559 	0 	0 	0 	0 	0 	0 	0 	
0.000612422 	1.73919e-08 	0.92 	0.04 	0.04 	0.0291625 	-1.73052e-08 	
-0.0291625 	-0.0409067 	0.0117442 	3.33951 	1.29788e-07 	23.3755 	6.67915 	
2.02504e-09 	182897 	1833.58 	2291.97 	0.35 	17.0603 	0.195747 	8.74889e-05 	
0.00758237 	0.00189559 	0 	0 	0 	0 	0 	0 	0 	
0.000699911 	1.9711e-08 	0.92 	0.04 	0.04 	0.0291623 	-1.79795e-08 	
-0.0291623 	-0.0409067 	0.0117444 	3.33957 	1.47096e-07 	26.7151 	3.33961 	
2.02508e-09 	182897 	1833.58 	2291.97 	0.35 	17.0603 	0.195751 	8.74889e-05 	
0.00758237 	0.00189559 	0 	0 	0 	0 	0 	0 	0 	
0.0007874 	2.08705e-08 	0.92 	0.04 	0.04 	0.029162 	-1.82042e-08 	
-0.029162 	-0.0409067 	0.0117447 	1.66983 	1.47096e-07 	29.2198 	0.834913 	
1.01257e-09 	91448.4 	916.789 	1145.99 	0.35 	8.53017 	0.195755 	4.37444e-05 	
0.00379119 	0.000947796 	0 	0 	0 	0 	0 	0 	0 	