TITLE = "Solution on Domain BulkDomain1D_0"
VARIABLES = "x [m]"  
"Vel_axial" 
"MF_sp(ECDMC)" 
"MF_sp(Li+)" 
"MF_sp(PF6-)" 
"Volt(Electroly)" 
"Volt(AnodeVolt)" 
"Potential Drop Electrode-Electrolyte [V]" 
"Surf_0 Equilibrium Potential Drop Electrode-Electrolyte [V]" 
"Overpotential_0 [V]" 
"Current Source [A/m^2]" 
"Li+ flux [kmol/m^2/s]" 
"Electrolyte Current [A/m^2]" 
"Electrode Current [A/m^2]" 
"CV Capacity discharged [A-s/m^2]" 
"Depth of discharge in CV [A-s/m^2]" 
"CV Capacity remaining [A-s/m^2]" 
"Initial CV capacity [A-s/m^2]" 
"Porosity []" 
"Surface Area [m2/m2] (area per area)" 
"Specific current (per particle area) [A/m^2]" 
"Control volume thickness [m]" 
"MoleDens Li_C6-bulk [kmol/m^3]" 
"MoleDens V_C6-bulk [kmol/m^3]" 
"qHeat_accum [J/m3]" 
"qHeat_step [W/m3]" 
"Joule_Lyte [W/m3]" 
"Joule_Solid [W/m3]" 
"electrodHeat [W/m3]" 
"OverpotHeat [W/m3]" 
"deltaSHeat [W/m3]" 

ZONE T = "ANOD, 0.0000E+00", I = 10, SOLUTIONTIME = 0.000000E+00
ZONETYPE = ORDERED
DATAPACKING = BLOCK
STRANDID = 1
 0.0000000000000E+00  8.7488888888889E-05  1.7497777777778E-04  2.6246666666667E-04  3.4995555555556E-04  4.3744444444444E-04  5.2493333333333E-04  6.1242222222222E-04  6.9991111111111E-04  7.8740000000000E-04 
 0.0000000000000E+00  0.0000000000000E+00  0.0000000000000E+00  0.0000000000000E+00  0.0000000000000E+00  0.0000000000000E+00  0.0000000000000E+00  0.0000000000000E+00  0.0000000000000E+00  0.0000000000000E+00 
 9.2000000000000E-01  9.2000000000000E-01  9.2000000000000E-01  9.2000000000000E-01  9.2000000000000E-01  9.2000000000000E-01  9.2000000000000E-01  9.2000000000000E-01  9.2000000000000E-01  9.2000000000000E-01 
 4.0000000000000E-02  4.0000000000000E-02  4.0000000000000E-02  4.0000000000000E-02  4.0000000000000E-02  4.0000000000000E-02  4.0000000000000E-02  4.0000000000000E-02  4.0000000000000E-02  4.0000000000000E-02 
 4.0000000000000E-02  4.0000000000000E-02  4.0000000000000E-02  4.0000000000000E-02  4.0000000000000E-02  4.0000000000000E-02  4.0000000000000E-02  4.0000000000000E-02  4.0000000000000E-02  4.0000000000000E-02 
-7.0000000000000E-02 -7.0000000000000E-02 -7.0000000000000E-02 -7.0000000000000E-02 -7.0000000000000E-02 -7.0000000000000E-02 -7.0000000000000E-02 -7.0000000000000E-02 -7.0000000000000E-02 -7.0000000000000E-02 
 0.0000000000000E+00  0.0000000000000E+00  0.0000000000000E+00  0.0000000000000E+00  0.0000000000000E+00  0.0000000000000E+00  0.0000000000000E+00  0.0000000000000E+00  0.0000000000000E+00  0.0000000000000E+00 
 7.0000000000000E-02  7.0000000000000E-02  7.0000000000000E-02  7.0000000000000E-02  7.0000000000000E-02  7.0000000000000E-02  7.0000000000000E-02  7.0000000000000E-02  7.0000000000000E-02  7.0000000000000E-02 
-4.0906712753392E-02 -4.0906712753392E-02 -4.0906712753392E-02 -4.0906712753392E-02 -4.0906712753392E-02 -4.0906712753392E-02 -4.0906712753392E-02 -4.0906712753392E-02 -4.0906712753392E-02 -4.0906712753392E-02 
 1.1090671275339E-01  1.1090671275339E-01  1.1090671275339E-01  1.1090671275339E-01  1.1090671275339E-01  1.1090671275339E-01  1.1090671275339E-01  1.1090671275339E-01  1.1090671275339E-01  1.1090671275339E-01 
 3.0930240924008E+01  6.1860481848016E+01  6.1860481848016E+01  6.1860481848016E+01  6.1860481848016E+01  6.1860481848016E+01  6.1860481848016E+01  6.1860481848016E+01  6.1860481848016E+01  3.0930240924008E+01 
-0.0000000000000E+00 -0.0000000000000E+00 -0.0000000000000E+00 -0.0000000000000E+00 -0.0000000000000E+00 -0.0000000000000E+00 -0.0000000000000E+00 -0.0000000000000E+00 -0.0000000000000E+00 -0.0000000000000E+00 
 0.0000000000000E+00  0.0000000000000E+00  0.0000000000000E+00  0.0000000000000E+00  0.0000000000000E+00  0.0000000000000E+00  0.0000000000000E+00  0.0000000000000E+00  0.0000000000000E+00  3.0930240924008E+01 
 3.0930240924008E+01 -0.0000000000000E+00 -0.0000000000000E+00 -0.0000000000000E+00 -0.0000000000000E+00 -0.0000000000000E+00 -0.0000000000000E+00 -0.0000000000000E+00 -0.0000000000000E+00  0.0000000000000E+00 
 0.0000000000000E+00  0.0000000000000E+00  0.0000000000000E+00  0.0000000000000E+00  0.0000000000000E+00  0.0000000000000E+00  0.0000000000000E+00  0.0000000000000E+00  0.0000000000000E+00  0.0000000000000E+00 
 9.1448444543281E+04  1.8289688908656E+05  1.8289688908656E+05  1.8289688908656E+05  1.8289688908656E+05  1.8289688908656E+05  1.8289688908656E+05  1.8289688908656E+05  1.8289688908656E+05  9.1448444543281E+04 
 3.6579377817312E+05  7.3158755634625E+05  7.3158755634625E+05  7.3158755634625E+05  7.3158755634625E+05  7.3158755634625E+05  7.3158755634625E+05  7.3158755634625E+05  7.3158755634625E+05  3.6579377817312E+05 
 4.5724222271640E+05  9.1448444543281E+05  9.1448444543281E+05  9.1448444543281E+05  9.1448444543281E+05  9.1448444543281E+05  9.1448444543281E+05  9.1448444543281E+05  9.1448444543281E+05  4.5724222271640E+05 
 3.5000000000000E-01  3.5000000000000E-01  3.5000000000000E-01  3.5000000000000E-01  3.5000000000000E-01  3.5000000000000E-01  3.5000000000000E-01  3.5000000000000E-01  3.5000000000000E-01  3.5000000000000E-01 
 8.5301666666666E+00  1.7060333333333E+01  1.7060333333333E+01  1.7060333333333E+01  1.7060333333333E+01  1.7060333333333E+01  1.7060333333333E+01  1.7060333333333E+01  1.7060333333333E+01  8.5301666666666E+00 
 3.6259831879809E+00  3.6259831879809E+00  3.6259831879809E+00  3.6259831879809E+00  3.6259831879809E+00  3.6259831879809E+00  3.6259831879809E+00  3.6259831879809E+00  3.6259831879809E+00  3.6259831879809E+00 
 4.3744444444444E-05  8.7488888888889E-05  8.7488888888889E-05  8.7488888888889E-05  8.7488888888889E-05  8.7488888888889E-05  8.7488888888889E-05  8.7488888888889E-05  8.7488888888889E-05  4.3744444444444E-05 
 8.6666666666666E+01  8.6666666666666E+01  8.6666666666666E+01  8.6666666666666E+01  8.6666666666666E+01  8.6666666666666E+01  8.6666666666666E+01  8.6666666666666E+01  8.6666666666666E+01  8.6666666666666E+01 
 2.1666666666667E+01  2.1666666666667E+01  2.1666666666667E+01  2.1666666666667E+01  2.1666666666667E+01  2.1666666666667E+01  2.1666666666667E+01  2.1666666666667E+01  2.1666666666667E+01  2.1666666666667E+01 
 0.0000000000000E+00  0.0000000000000E+00  0.0000000000000E+00  0.0000000000000E+00  0.0000000000000E+00  0.0000000000000E+00  0.0000000000000E+00  0.0000000000000E+00  0.0000000000000E+00  0.0000000000000E+00 
 0.0000000000000E+00  0.0000000000000E+00  0.0000000000000E+00  0.0000000000000E+00  0.0000000000000E+00  0.0000000000000E+00  0.0000000000000E+00  0.0000000000000E+00  0.0000000000000E+00  0.0000000000000E+00 
 0.0000000000000E+00  0.0000000000000E+00  0.0000000000000E+00  0.0000000000000E+00  0.0000000000000E+00  0.0000000000000E+00  0.0000000000000E+00  0.0000000000000E+00  0.0000000000000E+00  0.0000000000000E+00 
 0.0000000000000E+00  0.0000000000000E+00  0.0000000000000E+00  0.0000000000000E+00  0.0000000000000E+00  0.0000000000000E+00  0.0000000000000E+00  0.0000000000000E+00  0.0000000000000E+00  0.0000000000000E+00 
 0.0000000000000E+00  0.0000000000000E+00  0.0000000000000E+00  0.0000000000000E+00  0.0000000000000E+00  0.0000000000000E+00  0.0000000000000E+00  0.0000000000000E+00  0.0000000000000E+00  0.0000000000000E+00 
 0.0000000000000E+00  0.0000000000000E+00  0.0000000000000E+00  0.0000000000000E+00  0.0000000000000E+00  0.0000000000000E+00  0.0000000000000E+00  0.0000000000000E+00  0.0000000000000E+00  0.0000000000000E+00 
 0.0000000000000E+00  0.0000000000000E+00  0.0000000000000E+00  0.0000000000000E+00  0.0000000000000E+00  0.0000000000000E+00  0.0000000000000E+00  0.0000000000000E+00  0.0000000000000E+00  0.0000000000000E+00 
ZONE T = "ANOD, 1.0000E-08", I = 10, SOLUTIONTIME = 1.000000E-08
ZONETYPE = ORDERED
DATAPACKING = BLOCK
STRANDID = 1
 0.0000000000000E+00  8.7488888888889E-05  1.7497777777778E-04  2.6246666666667E-04  3.4995555555556E-04  4.3744444444444E-04  5.2493333333333E-04  6.1242222222222E-04  6.9991111111111E-04  7.8740000000000E-04 
 1.1589917712801E-09  3.4769775214894E-09  5.7949719098030E-09  8.1129813666971E-09  1.0431012322927E-08  1.2749071209092E-08  1.5067164456112E-08  1.7385298494548E-08  1.9703479755547E-08  2.0863142024352E-08 
 9.1999999999930E-01  9.1999999999930E-01  9.1999999999930E-01  9.1999999999930E-01  9.1999999999930E-01  9.1999999999930E-01  9.1999999999930E-01  9.1999999999930E-01  9.1999999999930E-01  9.1999999999971E-01 
 4.0000000000348E-02  4.0000000000348E-02  4.0000000000348E-02  4.0000000000348E-02  4.0000000000348E-02  4.0000000000348E-02  4.0000000000348E-02  4.0000000000348E-02  4.0000000000348E-02  4.0000000000144E-02 
 4.0000000000348E-02  4.0000000000348E-02  4.0000000000348E-02  4.0000000000348E-02  4.0000000000348E-02  4.0000000000348E-02  4.0000000000348E-02  4.0000000000348E-02  4.0000000000348E-02  4.0000000000144E-02 
 2.9167371469952E-02  2.9167355742851E-02  2.9167308561495E-02  2.9167229925777E-02  2.9167119835501E-02  2.9166978290354E-02  2.9166805289980E-02  2.9166600833900E-02  2.9166364921566E-02  2.9166097552327E-02 
 0.0000000000000E+00 -4.7371275802205E-09 -8.9169665839676E-09 -1.2539514934474E-08 -1.5604769008962E-08 -1.8112723638576E-08 -2.0063372108419E-08 -2.1456706157477E-08 -2.2292715978706E-08 -2.2571390218889E-08 
-2.9167371469952E-02 -2.9167360479978E-02 -2.9167317478461E-02 -2.9167242465292E-02 -2.9167135440270E-02 -2.9166996403077E-02 -2.9166825353352E-02 -2.9166622290606E-02 -2.9166387214282E-02 -2.9166120123717E-02 
-4.0906712752892E-02 -4.0906712752896E-02 -4.0906712752892E-02 -4.0906712752892E-02 -4.0906712752892E-02 -4.0906712752896E-02 -4.0906712752896E-02 -4.0906712752892E-02 -4.0906712752892E-02 -4.0906712753023E-02 
 1.1739341282939E-02  1.1739352272918E-02  1.1739395274430E-02  1.1739470287600E-02  1.1739577312622E-02  1.1739716349819E-02  1.1739887399544E-02  1.1740090462286E-02  1.1740325538609E-02  1.1740592629306E-02 
 1.6690490558674E+00  3.3381012909291E+00  3.3381137304665E+00  3.3381354303837E+00  3.3381663907482E+00  3.3382066116640E+00  3.3382560932539E+00  3.3383148356798E+00  3.3383828391264E+00  1.6692300519076E+00 
 8.6491890754554E-09  2.5947595402359E-08  4.3246060521628E-08  6.0544634257503E-08  7.7843379541926E-08  9.5142320559792E-08  1.1244152523863E-07  1.2974103069828E-07  1.4704096768198E-07  1.4704096768198E-07 
 0.0000000000000E+00  3.3380823907611E+00  6.6761731726935E+00  1.0014280107354E+01  1.3352414073627E+01  1.6690583477226E+01  2.0028797206018E+01  2.3367065394580E+01  2.6705397281632E+01  3.0043810616101E+01 
 3.0043810257178E+01  2.6705719148942E+01  2.3367628824425E+01  2.0029521430151E+01  1.6691387705521E+01  1.3353218389848E+01  1.0015004222322E+01  6.6767359421688E+00  3.3384042884476E+00  0.0000000000000E+00 
 1.6690490558674E-08  3.3381012909291E-08  3.3381137304665E-08  3.3381354303837E-08  3.3381663907482E-08  3.3382066116640E-08  3.3382560932539E-08  3.3383148356798E-08  3.3383828391264E-08  1.6692300519076E-08 
 9.1448444543298E+04  1.8289688908659E+05  1.8289688908660E+05  1.8289688908660E+05  1.8289688908660E+05  1.8289688908660E+05  1.8289688908660E+05  1.8289688908660E+05  1.8289688908660E+05  9.1448444543298E+04 
 3.6579377817311E+05  7.3158755634621E+05  7.3158755634621E+05  7.3158755634621E+05  7.3158755634621E+05  7.3158755634621E+05  7.3158755634621E+05  7.3158755634621E+05  7.3158755634621E+05  3.6579377817311E+05 
 4.5724222271640E+05  9.1448444543281E+05  9.1448444543281E+05  9.1448444543281E+05  9.1448444543281E+05  9.1448444543281E+05  9.1448444543281E+05  9.1448444543281E+05  9.1448444543281E+05  4.5724222271640E+05 
 3.5000000000000E-01  3.5000000000000E-01  3.5000000000000E-01  3.5000000000000E-01  3.5000000000000E-01  3.5000000000000E-01  3.5000000000000E-01  3.5000000000000E-01  3.5000000000000E-01  3.5000000000000E-01 
 8.5301666666666E+00  1.7060333333333E+01  1.7060333333333E+01  1.7060333333333E+01  1.7060333333333E+01  1.7060333333333E+01  1.7060333333333E+01  1.7060333333333E+01  1.7060333333333E+01  8.5301666666666E+00 
 1.9566429603182E-01  1.9566448238189E-01  1.9566521153161E-01  1.9566648348315E-01  1.9566829824045E-01  1.9567065580962E-01  1.9567355619784E-01  1.9567699941461E-01  1.9568098547077E-01  1.9568551437927E-01 
 4.3744444444444E-05  8.7488888888889E-05  8.7488888888889E-05  8.7488888888889E-05  8.7488888888889E-05  8.7488888888889E-05  8.7488888888889E-05  8.7488888888889E-05  8.7488888888889E-05  4.3744444444444E-05 
 8.6666666666662E+01  8.6666666666662E+01  8.6666666666662E+01  8.6666666666662E+01  8.6666666666662E+01  8.6666666666662E+01  8.6666666666662E+01  8.6666666666662E+01  8.6666666666662E+01  8.6666666666662E+01 
 2.1666666666671E+01  2.1666666666671E+01  2.1666666666671E+01  2.1666666666671E+01  2.1666666666671E+01  2.1666666666671E+01  2.1666666666671E+01  2.1666666666671E+01  2.1666666666671E+01  2.1666666666671E+01 
 1.8363934554562E-11  2.8663996872749E-11  6.1478026961558E-11  1.1872011044357E-10  2.0039091382466E-10  3.0649131433846E-10  4.3702248512137E-10  5.9198589657773E-10  7.7138328197374E-10  8.6719071385218E-10 
 1.8363934554562E-03  2.8663996872749E-03  6.1478026961558E-03  1.1872011044357E-02  2.0039091382466E-02  3.0649131433846E-02  4.3702248512137E-02  5.9198589657773E-02  7.7138328197374E-02  8.6719071385218E-02 
 3.0002848870472E-04  1.5001453756846E-03  5.1005072111646E-03  1.1101149505251E-02  1.9502138846054E-02  3.0303562422550E-02  4.3505536542050E-02  5.9108206766714E-02  7.7111744472908E-02  8.6713754492661E-02 
 1.5363649667514E-03  1.3662543115903E-03  1.0472954849912E-03  7.7086153910608E-04  5.3695253641124E-04  3.4556901129686E-04  1.9671197008687E-04  9.0382891059186E-05  2.6583724466208E-05  5.3168925576260E-06 
 0.0000000000000E+00  0.0000000000000E+00  0.0000000000000E+00  0.0000000000000E+00  0.0000000000000E+00  0.0000000000000E+00  0.0000000000000E+00  0.0000000000000E+00  0.0000000000000E+00  0.0000000000000E+00 
 0.0000000000000E+00  0.0000000000000E+00  0.0000000000000E+00  0.0000000000000E+00  0.0000000000000E+00  0.0000000000000E+00  0.0000000000000E+00  0.0000000000000E+00  0.0000000000000E+00  0.0000000000000E+00 
 0.0000000000000E+00  0.0000000000000E+00  0.0000000000000E+00  0.0000000000000E+00  0.0000000000000E+00  0.0000000000000E+00  0.0000000000000E+00  0.0000000000000E+00  0.0000000000000E+00  0.0000000000000E+00 
ZONE T = "ANOD, 2.0000E-08", I = 10, SOLUTIONTIME = 2.000000E-08
ZONETYPE = ORDERED
DATAPACKING = BLOCK
STRANDID = 1
 0.0000000000000E+00  8.7488888888889E-05  1.7497777777778E-04  2.6246666666667E-04  3.4995555555556E-04  4.3744444444444E-04  5.2493333333333E-04  6.1242222222222E-04  6.9991111111111E-04  7.8740000000000E-04 
 1.1589975178086E-09  3.4769947610897E-09  5.7950006425026E-09  8.1130215925431E-09  1.0431064041755E-08  1.2749134420751E-08  1.5067239160232E-08  1.7385384691010E-08  1.9703577444026E-08  2.0863245458802E-08 
 9.1999999999861E-01  9.1999999999861E-01  9.1999999999861E-01  9.1999999999861E-01  9.1999999999861E-01  9.1999999999861E-01  9.1999999999861E-01  9.1999999999861E-01  9.1999999999861E-01  9.1999999999942E-01 
 4.0000000000696E-02  4.0000000000696E-02  4.0000000000696E-02  4.0000000000696E-02  4.0000000000696E-02  4.0000000000696E-02  4.0000000000696E-02  4.0000000000696E-02  4.0000000000696E-02  4.0000000000288E-02 
 4.0000000000696E-02  4.0000000000696E-02  4.0000000000696E-02  4.0000000000696E-02  4.0000000000696E-02  4.0000000000696E-02  4.0000000000696E-02  4.0000000000696E-02  4.0000000000696E-02  4.0000000000288E-02 
 2.9167373665564E-02  2.9167357938378E-02  2.9167310756792E-02  2.9167232120687E-02  2.9167122029860E-02  2.9166980484018E-02  2.9166807482783E-02  2.9166603025688E-02  2.9166367112180E-02  2.9166099741619E-02 
 0.0000000000000E+00 -4.7371510662849E-09 -8.9170107929399E-09 -1.2539577103191E-08 -1.5604846374249E-08 -1.8112813437298E-08 -2.0063471577477E-08 -2.1456812533862E-08 -2.2292826499437E-08 -2.2571502121063E-08 
-2.9167373665564E-02 -2.9167362675529E-02 -2.9167319673803E-02 -2.9167244660264E-02 -2.9167137634706E-02 -2.9166998596832E-02 -2.9166827546255E-02 -2.9166624482501E-02 -2.9166389405007E-02 -2.9166122313121E-02 
-4.0906712752388E-02 -4.0906712752390E-02 -4.0906712752388E-02 -4.0906712752388E-02 -4.0906712752391E-02 -4.0906712752390E-02 -4.0906712752390E-02 -4.0906712752390E-02 -4.0906712752390E-02 -4.0906712752652E-02 
 1.1739339086824E-02  1.1739350076861E-02  1.1739393078585E-02  1.1739468092124E-02  1.1739575117685E-02  1.1739714155559E-02  1.1739885206136E-02  1.1740088269889E-02  1.1740323347383E-02  1.1740590439532E-02 
 1.6690487382324E+00  3.3381006556765E+00  3.3381130952744E+00  3.3381347952983E+00  3.3381657558175E+00  3.3382059769312E+00  3.3382554587665E+00  3.3383142014828E+00  3.3383822052674E+00  1.6692297351835E+00 
 8.6492352058110E-09  2.5947722098543E-08  4.3246273453287E-08  6.0544937249906E-08  7.7843761503468E-08  9.5142794181022E-08  1.1244208328079E-07  1.2974167679913E-07  1.4704176694601E-07  1.4704176694601E-07 
 0.0000000000000E+00  3.3380990659879E+00  6.6762059415826E+00  1.0014329886896E+01  1.3352480162225E+01  1.6690666028786E+01  2.0028896746692E+01  2.3367181576791E+01  2.6705529780042E+01  3.0043950617682E+01 
 3.0043950617931E+01  2.6705851551860E+01  2.3367744676384E+01  2.0029620731098E+01  1.6691470455540E+01  1.3353284589166E+01  1.0015053871317E+01  6.6767690411923E+00  3.3384208378172E+00  0.0000000000000E+00 
 3.3380977940998E-08  6.6762019466056E-08  6.6762268257409E-08  6.6762702256820E-08  6.6763321465657E-08  6.6764125885952E-08  6.6765115520204E-08  6.6766290371626E-08  6.6767650443938E-08  3.3384597870911E-08 
 9.1448444543314E+04  1.8289688908663E+05  1.8289688908663E+05  1.8289688908663E+05  1.8289688908663E+05  1.8289688908663E+05  1.8289688908663E+05  1.8289688908663E+05  1.8289688908663E+05  9.1448444543314E+04 
 3.6579377817309E+05  7.3158755634618E+05  7.3158755634618E+05  7.3158755634618E+05  7.3158755634618E+05  7.3158755634618E+05  7.3158755634618E+05  7.3158755634618E+05  7.3158755634618E+05  3.6579377817309E+05 
 4.5724222271640E+05  9.1448444543281E+05  9.1448444543281E+05  9.1448444543281E+05  9.1448444543281E+05  9.1448444543281E+05  9.1448444543281E+05  9.1448444543281E+05  9.1448444543281E+05  4.5724222271640E+05 
 3.5000000000000E-01  3.5000000000000E-01  3.5000000000000E-01  3.5000000000000E-01  3.5000000000000E-01  3.5000000000000E-01  3.5000000000000E-01  3.5000000000000E-01  3.5000000000000E-01  3.5000000000000E-01 
 8.5301666666666E+00  1.7060333333333E+01  1.7060333333333E+01  1.7060333333333E+01  1.7060333333333E+01  1.7060333333333E+01  1.7060333333333E+01  1.7060333333333E+01  1.7060333333333E+01  8.5301666666666E+00 
 1.9566425879515E-01  1.9566444514624E-01  1.9566517429951E-01  1.9566644625730E-01  1.9566826102367E-01  1.9567061860444E-01  1.9567351900704E-01  1.9567696224084E-01  1.9568094831680E-01  1.9568547724939E-01 
 4.3744444444444E-05  8.7488888888889E-05  8.7488888888889E-05  8.7488888888889E-05  8.7488888888889E-05  8.7488888888889E-05  8.7488888888889E-05  8.7488888888889E-05  8.7488888888889E-05  4.3744444444444E-05 
 8.6666666666658E+01  8.6666666666658E+01  8.6666666666658E+01  8.6666666666658E+01  8.6666666666658E+01  8.6666666666658E+01  8.6666666666658E+01  8.6666666666658E+01  8.6666666666658E+01  8.6666666666658E+01 
 2.1666666666674E+01  2.1666666666674E+01  2.1666666666674E+01  2.1666666666674E+01  2.1666666666674E+01  2.1666666666674E+01  2.1666666666674E+01  2.1666666666674E+01  2.1666666666674E+01  2.1666666666674E+01 
 3.6728053457064E-11  5.7328277067816E-11  1.2295665893139E-10  2.3744140238199E-10  4.0078380912523E-10  6.1298566268745E-10  8.7404931355795E-10  1.1839776806141E-09  1.5427742167106E-09  1.7343900046047E-09 
 1.8364118902503E-03  2.8664280195067E-03  6.1478631969830E-03  1.1872129193842E-02  2.0039289530057E-02  3.0649434834898E-02  4.3702682843658E-02  5.9199178403640E-02  7.7139093473689E-02  8.6719929075252E-02 
 6.0006017796915E-04  3.0003055361989E-03  1.0201064538569E-02  2.2202409516517E-02  3.9004470515640E-02  6.0607424819783E-02  8.7011505465230E-02  1.1821700138317E-01  1.5422425395856E-01  1.7342836662264E-01 
 3.0727451677373E-03  2.7325221705827E-03  2.0946013545693E-03  1.5417307216819E-03  1.0739103968832E-03  6.9114144896140E-04  3.9342589056525E-04  1.8076667824504E-04  5.3167712499210E-05  1.0633837829150E-05 
 0.0000000000000E+00  0.0000000000000E+00  0.0000000000000E+00  0.0000000000000E+00  0.0000000000000E+00  0.0000000000000E+00  0.0000000000000E+00  0.0000000000000E+00  0.0000000000000E+00  0.0000000000000E+00 
 0.0000000000000E+00  0.0000000000000E+00  0.0000000000000E+00  0.0000000000000E+00  0.0000000000000E+00  0.0000000000000E+00  0.0000000000000E+00  0.0000000000000E+00  0.0000000000000E+00  0.0000000000000E+00 
 0.0000000000000E+00  0.0000000000000E+00  0.0000000000000E+00  0.0000000000000E+00  0.0000000000000E+00  0.0000000000000E+00  0.0000000000000E+00  0.0000000000000E+00  0.0000000000000E+00  0.0000000000000E+00 
ZONE T = "ANOD, 3.0000E-08", I = 10, SOLUTIONTIME = 3.000000E-08
ZONETYPE = ORDERED
DATAPACKING = BLOCK
STRANDID = 1
 0.0000000000000E+00  8.7488888888889E-05  1.7497777777778E-04  2.6246666666667E-04  3.4995555555556E-04  4.3744444444444E-04  5.2493333333333E-04  6.1242222222222E-04  6.9991111111111E-04  7.8740000000000E-04 
 1.1589975177885E-09  3.4769947610298E-09  5.7950006424025E-09  8.1130215924027E-09  1.0431064041575E-08  1.2749134420531E-08  1.5067602367699E-08  1.7386474313893E-08  1.9705393482325E-08  2.0863971873908E-08 
 9.1999999999791E-01  9.1999999999791E-01  9.1999999999791E-01  9.1999999999791E-01  9.1999999999791E-01  9.1999999999791E-01  9.1999999999791E-01  9.1999999999791E-01  9.1999999999791E-01  9.1999999999914E-01 
 4.0000000001045E-02  4.0000000001045E-02  4.0000000001045E-02  4.0000000001045E-02  4.0000000001045E-02  4.0000000001045E-02  4.0000000001045E-02  4.0000000001045E-02  4.0000000001045E-02  4.0000000000432E-02 
 4.0000000001045E-02  4.0000000001045E-02  4.0000000001045E-02  4.0000000001045E-02  4.0000000001045E-02  4.0000000001045E-02  4.0000000001045E-02  4.0000000001045E-02  4.0000000001045E-02  4.0000000000432E-02 
 2.9167373665353E-02  2.9167357938167E-02  2.9167310756581E-02  2.9167232120476E-02  2.9167122029649E-02  2.9166980483807E-02  2.9166807482572E-02  2.9166603025477E-02  2.9166367111969E-02  2.9166099741407E-02 
 0.0000000000000E+00 -4.7371510662057E-09 -8.9170107927910E-09 -1.2539577102982E-08 -1.5604846373990E-08 -1.8112813436998E-08 -2.0063471577146E-08 -2.1456812533510E-08 -2.2292826499073E-08 -2.2571502120697E-08 
-2.9167373665353E-02 -2.9167362675318E-02 -2.9167319673591E-02 -2.9167244660053E-02 -2.9167137634495E-02 -2.9166998596620E-02 -2.9166827546043E-02 -2.9166624482290E-02 -2.9166389404796E-02 -2.9166122312909E-02 
-4.0906712751892E-02 -4.0906712751891E-02 -4.0906712751892E-02 -4.0906712751892E-02 -4.0906712751890E-02 -4.0906712751894E-02 -4.0906712751893E-02 -4.0906712751894E-02 -4.0906712751894E-02 -4.0906712752287E-02 
 1.1739339086539E-02  1.1739350076573E-02  1.1739393078300E-02  1.1739468091839E-02  1.1739575117395E-02  1.1739714155274E-02  1.1739885205850E-02  1.1740088269605E-02  1.1740323347099E-02  1.1740590439377E-02 
 1.6690487382034E+00  3.3381006556193E+00  3.3381130952164E+00  3.3381347952403E+00  3.3381657557602E+00  3.3382059768733E+00  3.3382554587089E+00  3.3383142014256E+00  3.3383822052102E+00  1.6692297351694E+00 
 8.6492352058863E-09  2.5947722098768E-08  4.3246273451755E-08  6.0544937244701E-08  7.7843761507969E-08  9.5142794175779E-08  1.1244208327570E-07  1.2974167679419E-07  1.4704183906451E-07  1.4704183906451E-07 
 0.0000000000000E+00  3.3380990660169E+00  6.6762059414566E+00  1.0014329886615E+01  1.3352480162157E+01  1.6690666028564E+01  2.0028896746130E+01  2.3367181576258E+01  2.6705529779686E+01  3.0043950617475E+01 
 3.0043950617427E+01  2.6705851551414E+01  2.3367744675996E+01  2.0029620730768E+01  1.6691470455267E+01  1.3353284588951E+01  1.0015053871160E+01  6.6767690410924E+00  3.3384208377745E+00  0.0000000000000E+00 
 5.0071465323032E-08  1.0014302602225E-07  1.0014339920957E-07  1.0014405020922E-07  1.0014497902326E-07  1.0014618565469E-07  1.0014767010729E-07  1.0014943238588E-07  1.0015147249604E-07  5.0076895222605E-08 
 9.1448444543331E+04  1.8289688908666E+05  1.8289688908666E+05  1.8289688908666E+05  1.8289688908666E+05  1.8289688908666E+05  1.8289688908666E+05  1.8289688908666E+05  1.8289688908666E+05  9.1448444543331E+04 
 3.6579377817307E+05  7.3158755634615E+05  7.3158755634615E+05  7.3158755634615E+05  7.3158755634615E+05  7.3158755634615E+05  7.3158755634615E+05  7.3158755634615E+05  7.3158755634615E+05  3.6579377817307E+05 
 4.5724222271640E+05  9.1448444543281E+05  9.1448444543281E+05  9.1448444543281E+05  9.1448444543281E+05  9.1448444543281E+05  9.1448444543281E+05  9.1448444543281E+05  9.1448444543281E+05  4.5724222271640E+05 
 3.5000000000000E-01  3.5000000000000E-01  3.5000000000000E-01  3.5000000000000E-01  3.5000000000000E-01  3.5000000000000E-01  3.5000000000000E-01  3.5000000000000E-01  3.5000000000000E-01  3.5000000000000E-01 
 8.5301666666666E+00  1.7060333333333E+01  1.7060333333333E+01  1.7060333333333E+01  1.7060333333333E+01  1.7060333333333E+01  1.7060333333333E+01  1.7060333333333E+01  1.7060333333333E+01  8.5301666666666E+00 
 1.9566425879175E-01  1.9566444514288E-01  1.9566517429611E-01  1.9566644625390E-01  1.9566826102031E-01  1.9567061860104E-01  1.9567351900367E-01  1.9567696223749E-01  1.9568094831345E-01  1.9568547724774E-01 
 4.3744444444444E-05  8.7488888888889E-05  8.7488888888889E-05  8.7488888888889E-05  8.7488888888889E-05  8.7488888888889E-05  8.7488888888889E-05  8.7488888888889E-05  8.7488888888889E-05  4.3744444444444E-05 
 8.6666666666654E+01  8.6666666666654E+01  8.6666666666654E+01  8.6666666666654E+01  8.6666666666654E+01  8.6666666666654E+01  8.6666666666654E+01  8.6666666666654E+01  8.6666666666654E+01  8.6666666666654E+01 
 2.1666666666678E+01  2.1666666666678E+01  2.1666666666678E+01  2.1666666666678E+01  2.1666666666678E+01  2.1666666666678E+01  2.1666666666678E+01  2.1666666666678E+01  2.1666666666678E+01  2.1666666666678E+01 
 5.5092172359080E-11  8.5992557262558E-11  1.8443529089800E-10  3.5616269431318E-10  6.0117670442269E-10  9.1948001102439E-10  1.3110761419665E-09  1.7759694646186E-09  2.3141651514220E-09  2.6015892953400E-09 
 1.8364118902015E-03  2.8664280194741E-03  6.1478631966616E-03  1.1872129193119E-02  2.0039289529746E-02  3.0649434833695E-02  4.3702682840854E-02  5.9199178400445E-02  7.7139093471138E-02  8.6719929073535E-02 
 9.0009186723619E-04  4.5004656967263E-03  1.5301621865688E-02  3.3303669527086E-02  5.8506802184931E-02  9.0911287215824E-02  1.3051747438561E-01  1.7732579599643E-01  2.3133676344167E-01  2.6014297875090E-01 
 4.6091253686718E-03  4.0987900295295E-03  3.1419072241126E-03  2.3125999042323E-03  1.6108682573376E-03  1.0367138866148E-03  5.9013981103744E-04  2.7115046542816E-04  7.9751700531487E-05  1.5950783100585E-05 
 0.0000000000000E+00  0.0000000000000E+00  0.0000000000000E+00  0.0000000000000E+00  0.0000000000000E+00  0.0000000000000E+00  0.0000000000000E+00  0.0000000000000E+00  0.0000000000000E+00  0.0000000000000E+00 
 0.0000000000000E+00  0.0000000000000E+00  0.0000000000000E+00  0.0000000000000E+00  0.0000000000000E+00  0.0000000000000E+00  0.0000000000000E+00  0.0000000000000E+00  0.0000000000000E+00  0.0000000000000E+00 
 0.0000000000000E+00  0.0000000000000E+00  0.0000000000000E+00  0.0000000000000E+00  0.0000000000000E+00  0.0000000000000E+00  0.0000000000000E+00  0.0000000000000E+00  0.0000000000000E+00  0.0000000000000E+00 
ZONE T = "ANOD, 4.0000E-08", I = 10, SOLUTIONTIME = 4.000000E-08
ZONETYPE = ORDERED
DATAPACKING = BLOCK
STRANDID = 1
 0.0000000000000E+00  8.7488888888889E-05  1.7497777777778E-04  2.6246666666667E-04  3.4995555555556E-04  4.3744444444444E-04  5.2493333333333E-04  6.1242222222222E-04  6.9991111111111E-04  7.8740000000000E-04 
 1.1586343100409E-09  3.4762683455132E-09  5.7935478113906E-09  8.1108423458956E-09  1.0428521587300E-08  1.2745865550760E-08  1.5063243874706E-08  1.7381389405404E-08  1.9699582158340E-08  2.0858705361505E-08 
 9.1999999999721E-01  9.1999999999721E-01  9.1999999999721E-01  9.1999999999721E-01  9.1999999999721E-01  9.1999999999721E-01  9.1999999999721E-01  9.1999999999721E-01  9.1999999999721E-01  9.1999999999885E-01 
 4.0000000001393E-02  4.0000000001393E-02  4.0000000001393E-02  4.0000000001393E-02  4.0000000001393E-02  4.0000000001393E-02  4.0000000001393E-02  4.0000000001393E-02  4.0000000001393E-02  4.0000000000576E-02 
 4.0000000001393E-02  4.0000000001393E-02  4.0000000001393E-02  4.0000000001393E-02  4.0000000001393E-02  4.0000000001393E-02  4.0000000001393E-02  4.0000000001393E-02  4.0000000001393E-02  4.0000000000576E-02 
 2.9167373665140E-02  2.9167357937955E-02  2.9167310756368E-02  2.9167232120264E-02  2.9167122029436E-02  2.9166980483595E-02  2.9166807482360E-02  2.9166603025265E-02  2.9166367111757E-02  2.9166099741195E-02 
 0.0000000000000E+00 -4.7371510661262E-09 -8.9170107926420E-09 -1.2539577102773E-08 -1.5604846373731E-08 -1.8112813436698E-08 -2.0063471576815E-08 -2.1456812533157E-08 -2.2292826498708E-08 -2.2571502120329E-08 
-2.9167373665140E-02 -2.9167362675106E-02 -2.9167319673379E-02 -2.9167244659841E-02 -2.9167137634283E-02 -2.9166998596408E-02 -2.9166827545831E-02 -2.9166624482077E-02 -2.9166389404583E-02 -2.9166122312697E-02 
-4.0906712751391E-02 -4.0906712751389E-02 -4.0906712751391E-02 -4.0906712751391E-02 -4.0906712751397E-02 -4.0906712751393E-02 -4.0906712751393E-02 -4.0906712751392E-02 -4.0906712751392E-02 -4.0906712751917E-02 
 1.1739339086251E-02  1.1739350076283E-02  1.1739393078012E-02  1.1739468091551E-02  1.1739575117114E-02  1.1739714154984E-02  1.1739885205561E-02  1.1740088269315E-02  1.1740323346809E-02  1.1740590439220E-02 
 1.6690487381748E+00  3.3381006555599E+00  3.3381130951593E+00  3.3381347951832E+00  3.3381657557029E+00  3.3382059768153E+00  3.3382554586519E+00  3.3383142013675E+00  3.3383822051522E+00  1.6692297351556E+00 